# Time Dx Dy Dz magD
2.5e-05 0 1.28005e-11 -2.60529e-13 1.28031e-11
5e-05 0 4.3844e-11 -1.24822e-12 4.38617e-11
7.5e-05 0 9.974e-11 -3.86897e-12 9.9815e-11
0.0001 0 1.85126e-10 -9.45464e-12 1.85367e-10
0.000125 0 3.01782e-10 -1.95123e-11 3.02412e-10
0.00015 0 4.48786e-10 -3.53376e-11 4.50175e-10
0.000175 0 6.23656e-10 -5.76514e-11 6.26315e-10
0.0002 0 8.2393e-10 -8.64222e-11 8.2845e-10
0.000225 0 1.04856e-09 -1.20978e-10 1.05552e-09
0.00025 0 1.29866e-09 -1.60389e-10 1.30853e-09
0.000275 0 1.57748e-09 -2.04003e-10 1.59062e-09
0.0003 0 1.88971e-09 -2.51919e-10 1.90643e-09
0.000325 0 2.24056e-09 -3.05255e-10 2.26126e-09
0.00035 0 2.63485e-09 -3.66102e-10 2.66017e-09
0.000375 0 3.07663e-09 -4.3722e-10 3.10754e-09
0.0004 0 3.56913e-09 -5.2161e-10 3.60704e-09
0.000425 0 4.1152e-09 -6.22136e-10 4.16196e-09
0.00045 0 4.71789e-09 -7.41361e-10 4.77578e-09
0.000475 0 5.38085e-09 -8.8165e-10 5.45261e-09
0.0005 0 6.1087e-09 -1.04549e-09 6.19753e-09
0.000525 0 6.90693e-09 -1.23595e-09 7.01664e-09
0.00055 0 7.78174e-09 -1.45707e-09 7.91698e-09
0.000575 0 8.73977e-09 -1.71418e-09 8.90629e-09
0.0006 0 9.78786e-09 -2.014e-09 9.99292e-09
0.000625 0 1.0933e-08 -2.36465e-09 1.11858e-08
0.00065 0 1.21824e-08 -2.77562e-09 1.24946e-08
0.000675 0 1.35435e-08 -3.25776e-09 1.39298e-08
0.0007 0 1.50244e-08 -3.82345e-09 1.55033e-08
0.000725 0 1.66338e-08 -4.48692e-09 1.72283e-08
0.00075 0 1.83811e-08 -5.2647e-09 1.91202e-08
0.000775 0 2.02765e-08 -6.17623e-09 2.11963e-08
0.0008 0 2.23312e-08 -7.24446e-09 2.34769e-08
0.000825 0 2.4557e-08 -8.49664e-09 2.59854e-08
0.00085 0 2.69665e-08 -9.96507e-09 2.87488e-08
0.000875 0 2.95731e-08 -1.16881e-08 3.1799e-08
0.0009 0 3.23913e-08 -1.37112e-08 3.51738e-08
0.000925 0 3.54368e-08 -1.60888e-08 3.8918e-08
0.00095 0 3.87263e-08 -1.8886e-08 4.3086e-08
0.000975 0 4.22783e-08 -2.21812e-08 4.77437e-08
0.001 0 4.61128e-08 -2.60693e-08 5.29716e-08
0.001025 0 5.02517e-08 -3.06653e-08 5.88693e-08
0.00105 0 5.47191e-08 -3.61094e-08 6.55597e-08
0.001075 0 5.95416e-08 -4.25714e-08 7.31951e-08
0.0011 0 6.47482e-08 -5.02576e-08 8.19644e-08
0.001125 0 7.0371e-08 -5.94171e-08 9.21003e-08
0.00115 0 7.6445e-08 -7.03494e-08 1.03889e-07
0.001175 0 8.30088e-08 -8.34119e-08 1.17677e-07
0.0012 0 9.0104e-08 -9.9028e-08 1.33885e-07
0.001225 0 9.77758e-08 -1.17695e-07 1.5301e-07
0.00125 0 1.06072e-07 -1.39991e-07 1.75638e-07
0.001275 0 1.15045e-07 -1.66581e-07 2.02446e-07
0.0013 0 1.24747e-07 -1.9822e-07 2.34208e-07
0.001325 0 1.35234e-07 -2.3576e-07 2.71792e-07
0.00135 0 1.4656e-07 -2.80141e-07 3.16163e-07
0.001375 0 1.58782e-07 -3.32395e-07 3.68372e-07
0.0014 0 1.71953e-07 -3.93635e-07 4.29554e-07
0.001425 0 1.86125e-07 -4.65045e-07 5.00908e-07
0.00145 0 2.01343e-07 -5.47866e-07 5.83691e-07
0.001475 0 2.1765e-07 -6.43376e-07 6.79194e-07
0.0015 0 2.35082e-07 -7.52871e-07 7.8872e-07
0.001525 0 2.53666e-07 -8.77644e-07 9.13567e-07
0.00155 0 2.73422e-07 -1.01895e-06 1.055e-06
0.001575 0 2.94364e-07 -1.178e-06 1.21422e-06
0.0016 0 3.16495e-07 -1.35591e-06 1.39236e-06
0.001625 0 3.39812e-07 -1.55369e-06 1.59042e-06
0.00165 0 3.64308e-07 -1.77225e-06 1.80931e-06
0.001675 0 3.89966e-07 -2.01232e-06 2.04976e-06
0.0017 0 4.1677e-07 -2.2745e-06 2.31237e-06
0.001725 0 4.447e-07 -2.55921e-06 2.59756e-06
0.00175 0 4.73737e-07 -2.86671e-06 2.90559e-06
0.001775 0 5.03863e-07 -3.1971e-06 3.23656e-06
0.0018 0 5.35066e-07 -3.55031e-06 3.5904e-06
0.001825 0 5.67338e-07 -3.92612e-06 3.9669e-06
0.00185 0 6.00679e-07 -4.3242e-06 4.36572e-06
0.001875 0 6.35096e-07 -4.74407e-06 4.7864e-06
0.0019 0 6.70606e-07 -5.1852e-06 5.22839e-06
0.001925 0 7.07234e-07 -5.64695e-06 5.69107e-06
0.00195 0 7.45015e-07 -6.12864e-06 6.17376e-06
0.001975 0 7.83992e-07 -6.62955e-06 6.67575e-06
0.002 0 8.24215e-07 -7.14894e-06 7.1963e-06
0.002025 0 8.65745e-07 -7.68608e-06 7.73469e-06
0.00205 0 9.08644e-07 -8.24023e-06 8.29018e-06
0.002075 0 9.52982e-07 -8.81068e-06 8.86207e-06
0.0021 0 9.98835e-07 -9.39674e-06 9.44968e-06
0.002125 0 1.04628e-06 -9.99775e-06 1.00523e-05
0.00215 0 1.09539e-06 -1.06131e-05 1.06695e-05
0.002175 0 1.14626e-06 -1.12422e-05 1.13004e-05
0.0022 0 1.19896e-06 -1.18844e-05 1.19447e-05
0.002225 0 1.25358e-06 -1.25393e-05 1.26018e-05
0.00225 0 1.3102e-06 -1.32062e-05 1.32711e-05
0.002275 0 1.36891e-06 -1.38848e-05 1.39521e-05
0.0023 0 1.4298e-06 -1.45746e-05 1.46446e-05
0.002325 0 1.49296e-06 -1.5275e-05 1.53478e-05
0.00235 0 1.55847e-06 -1.59858e-05 1.60615e-05
0.002375 0 1.62642e-06 -1.67063e-05 1.67853e-05
0.0024 0 1.69692e-06 -1.74363e-05 1.75186e-05
0.002425 0 1.77004e-06 -1.81752e-05 1.82612e-05
0.00245 0 1.8459e-06 -1.89228e-05 1.90126e-05
0.002475 0 1.92459e-06 -1.96786e-05 1.97725e-05
0.0025 0 2.0062e-06 -2.04422e-05 2.05404e-05
0.002525 0 2.09086e-06 -2.12133e-05 2.13161e-05
0.00255 0 2.17865e-06 -2.19915e-05 2.20992e-05
0.002575 0 2.26969e-06 -2.27764e-05 2.28892e-05
0.0026 0 2.36409e-06 -2.35677e-05 2.3686e-05
0.002625 0 2.46197e-06 -2.4365e-05 2.44891e-05
0.00265 0 2.56344e-06 -2.5168e-05 2.52982e-05
0.002675 0 2.66862e-06 -2.59763e-05 2.61131e-05
0.0027 0 2.77764e-06 -2.67897e-05 2.69333e-05
0.002725 0 2.89061e-06 -2.76078e-05 2.77587e-05
0.00275 0 3.00767e-06 -2.84303e-05 2.85889e-05
0.002775 0 3.12895e-06 -2.92568e-05 2.94237e-05
0.0028 0 3.25458e-06 -3.00872e-05 3.02627e-05
0.002825 0 3.3847e-06 -3.0921e-05 3.11057e-05
0.00285 0 3.51945e-06 -3.1758e-05 3.19525e-05
0.002875 0 3.65896e-06 -3.2598e-05 3.28027e-05
0.0029 0 3.8034e-06 -3.34407e-05 3.36563e-05
0.002925 0 3.9529e-06 -3.42857e-05 3.45128e-05
0.00295 0 4.10762e-06 -3.51329e-05 3.53722e-05
0.002975 0 4.26771e-06 -3.5982e-05 3.62342e-05
0.003 0 4.43332e-06 -3.68327e-05 3.70985e-05
0.003025 0 4.60462e-06 -3.76848e-05 3.79651e-05
0.00305 0 4.78175e-06 -3.85381e-05 3.88336e-05
0.003075 0 4.96488e-06 -3.93923e-05 3.9704e-05
0.0031 0 5.15415e-06 -4.02473e-05 4.0576e-05
0.003125 0 5.34973e-06 -4.11028e-05 4.14495e-05
0.00315 0 5.55176e-06 -4.19585e-05 4.23242e-05
0.003175 0 5.76042e-06 -4.28143e-05 4.32001e-05
0.0032 0 5.97586e-06 -4.367e-05 4.4077e-05
0.003225 0 6.19825e-06 -4.45254e-05 4.49548e-05
0.00325 0 6.42773e-06 -4.53802e-05 4.58332e-05
0.003275 0 6.66448e-06 -4.62343e-05 4.67122e-05
0.0033 0 6.90863e-06 -4.70875e-05 4.75916e-05
0.003325 0 7.16034e-06 -4.79396e-05 4.84714e-05
0.00335 0 7.41975e-06 -4.87903e-05 4.93513e-05
0.003375 0 7.68699e-06 -4.96396e-05 5.02313e-05
0.0034 0 7.9622e-06 -5.04872e-05 5.11112e-05
0.003425 0 8.2455e-06 -5.13329e-05 5.19909e-05
0.00345 0 8.53701e-06 -5.21766e-05 5.28704e-05
0.003475 0 8.83683e-06 -5.30181e-05 5.37495e-05
0.0035 0 9.14509e-06 -5.38571e-05 5.46281e-05
0.003525 0 9.46187e-06 -5.46936e-05 5.5506e-05
0.00355 0 9.78727e-06 -5.55274e-05 5.63833e-05
0.003575 0 1.01214e-05 -5.63582e-05 5.72598e-05
0.0036 0 1.04643e-05 -5.71859e-05 5.81355e-05
0.003625 0 1.0816e-05 -5.80104e-05 5.90102e-05
0.00365 0 1.11767e-05 -5.88315e-05 5.98838e-05
0.003675 0 1.15463e-05 -5.96491e-05 6.07563e-05
0.0037 0 1.1925e-05 -6.04628e-05 6.16276e-05
0.003725 0 1.23128e-05 -6.12727e-05 6.24976e-05
0.00375 0 1.27098e-05 -6.20786e-05 6.33663e-05
0.003775 0 1.3116e-05 -6.28802e-05 6.42335e-05
0.0038 0 1.35315e-05 -6.36774e-05 6.50993e-05
0.003825 0 1.39563e-05 -6.44701e-05 6.59634e-05
0.00385 0 1.43906e-05 -6.5258e-05 6.68259e-05
0.003875 0 1.48344e-05 -6.60411e-05 6.76867e-05
0.0039 0 1.52879e-05 -6.68191e-05 6.85456e-05
0.003925 0 1.57512e-05 -6.75917e-05 6.94027e-05
0.00395 0 1.62243e-05 -6.83588e-05 7.02578e-05
0.003975 0 1.67075e-05 -6.91202e-05 7.11108e-05
0.004 0 1.7201e-05 -6.98756e-05 7.19616e-05
0.004025 0 1.77049e-05 -7.06246e-05 7.281e-05
0.00405 0 1.82196e-05 -7.1367e-05 7.3656e-05
0.004075 0 1.87452e-05 -7.21024e-05 7.44992e-05
0.0041 0 1.92821e-05 -7.28304e-05 7.53397e-05
0.004125 0 1.98307e-05 -7.35505e-05 7.6177e-05
0.00415 0 2.03912e-05 -7.42622e-05 7.70109e-05
0.004175 0 2.09641e-05 -7.49649e-05 7.78411e-05
0.0042 0 2.15498e-05 -7.56579e-05 7.86672e-05
0.004225 0 2.21489e-05 -7.63405e-05 7.94887e-05
0.00425 0 2.27617e-05 -7.70118e-05 8.03051e-05
0.004275 0 2.33888e-05 -7.76707e-05 8.11158e-05
0.0043 0 2.40308e-05 -7.83162e-05 8.19201e-05
0.004325 0 2.46882e-05 -7.8947e-05 8.27173e-05
0.00435 0 2.53616e-05 -7.95619e-05 8.35063e-05
0.004375 0 2.60516e-05 -8.01593e-05 8.42864e-05
0.0044 0 2.67588e-05 -8.07375e-05 8.50563e-05
0.004425 0 2.74838e-05 -8.12949e-05 8.5815e-05
0.00445 0 2.82271e-05 -8.18296e-05 8.65612e-05
0.004475 0 2.89894e-05 -8.23395e-05 8.72937e-05
0.0045 0 2.97713e-05 -8.28227e-05 8.8011e-05
0.004525 0 3.05731e-05 -8.32771e-05 8.87118e-05
0.00455 0 3.13956e-05 -8.37004e-05 8.93949e-05
0.004575 0 3.2239e-05 -8.40905e-05 9.00587e-05
0.0046 0 3.31038e-05 -8.44453e-05 9.07021e-05
0.004625 0 3.39904e-05 -8.47626e-05 9.13238e-05
0.00465 0 3.4899e-05 -8.50403e-05 9.19228e-05
0.004675 0 3.58297e-05 -8.52767e-05 9.2498e-05
0.0047 0 3.67827e-05 -8.54698e-05 9.30487e-05
0.004725 0 3.7758e-05 -8.56181e-05 9.35742e-05
0.00475 0 3.87555e-05 -8.572e-05 9.4074e-05
0.004775 0 3.97749e-05 -8.57744e-05 9.45478e-05
0.0048 0 4.08159e-05 -8.57802e-05 9.49957e-05
0.004825 0 4.18781e-05 -8.57365e-05 9.54176e-05
0.00485 0 4.29608e-05 -8.56426e-05 9.58138e-05
0.004875 0 4.40633e-05 -8.54982e-05 9.61849e-05
0.0049 0 4.51848e-05 -8.53031e-05 9.65312e-05
0.004925 0 4.63243e-05 -8.5057e-05 9.68537e-05
0.00495 0 4.74807e-05 -8.47602e-05 9.7153e-05
0.004975 0 4.86526e-05 -8.4413e-05 9.74301e-05
0.005 0 4.98389e-05 -8.40156e-05 9.76859e-05
0.005025 0 5.10381e-05 -8.35687e-05 9.79215e-05
0.00505 0 5.22486e-05 -8.30729e-05 9.81378e-05
0.005075 0 5.34687e-05 -8.2529e-05 9.83359e-05
0.0051 0 5.46969e-05 -8.19378e-05 9.85167e-05
0.005125 0 5.59314e-05 -8.13002e-05 9.86815e-05
0.00515 0 5.71703e-05 -8.06171e-05 9.8831e-05
0.005175 0 5.8412e-05 -7.98898e-05 9.89664e-05
0.0052 0 5.96547e-05 -7.91192e-05 9.90885e-05
0.005225 0 6.08966e-05 -7.83066e-05 9.91984e-05
0.00525 0 6.21359e-05 -7.74533e-05 9.92969e-05
0.005275 0 6.3371e-05 -7.65605e-05 9.93851e-05
0.0053 0 6.46004e-05 -7.56295e-05 9.94638e-05
0.005325 0 6.58225e-05 -7.4662e-05 9.9534e-05
0.00535 0 6.70359e-05 -7.36592e-05 9.95966e-05
0.005375 0 6.82394e-05 -7.26227e-05 9.96527e-05
0.0054 0 6.94318e-05 -7.1554e-05 9.97033e-05
0.005425 0 7.06122e-05 -7.04547e-05 9.97494e-05
0.00545 0 7.17798e-05 -6.93265e-05 9.97922e-05
0.005475 0 7.29338e-05 -6.81708e-05 9.98329e-05
0.0055 0 7.40739e-05 -6.69894e-05 9.98725e-05
0.005525 0 7.51997e-05 -6.57839e-05 9.99126e-05
0.00555 0 7.63112e-05 -6.45559e-05 9.99543e-05
0.005575 0 7.74084e-05 -6.3307e-05 9.99992e-05
0.0056 0 7.84917e-05 -6.20387e-05 0.000100049
0.005625 0 7.95615e-05 -6.07525e-05 0.000100104
0.00565 0 8.06184e-05 -5.945e-05 0.000100168
0.005675 0 8.16633e-05 -5.81326e-05 0.000100241
0.0057 0 8.26971e-05 -5.68015e-05 0.000100326
0.005725 0 8.3721e-05 -5.54581e-05 0.000100423
0.00575 0 8.47361e-05 -5.41035e-05 0.000100536
0.005775 0 8.57439e-05 -5.27389e-05 0.000100665
0.0058 0 8.67457e-05 -5.13652e-05 0.000100813
0.005825 0 8.77433e-05 -4.99833e-05 0.000100981
0.00585 0 8.8738e-05 -4.85941e-05 0.000101172
0.005875 0 8.97316e-05 -4.71982e-05 0.000101388
0.0059 0 9.07258e-05 -4.57961e-05 0.000101629
0.005925 0 9.17221e-05 -4.43884e-05 0.000101898
0.00595 0 9.27221e-05 -4.29753e-05 0.000102197
0.005975 0 9.37275e-05 -4.15572e-05 0.000102527
0.006 0 9.47398e-05 -4.01341e-05 0.00010289
0.006025 0 9.57603e-05 -3.8706e-05 0.000103287
0.00605 0 9.67903e-05 -3.72729e-05 0.000103719
0.006075 0 9.7831e-05 -3.58345e-05 0.000104187
0.0061 0 9.88834e-05 -3.43907e-05 0.000104693
0.006125 0 9.99484e-05 -3.29411e-05 0.000105237
0.00615 0 0.000101027 -3.14851e-05 0.000105819
0.006175 0 0.000102118 -3.00224e-05 0.00010644
0.0062 0 0.000103224 -2.85525e-05 0.0001071
0.006225 0 0.000104344 -2.70746e-05 0.0001078
0.00625 0 0.000105478 -2.55881e-05 0.000108537
0.006275 0 0.000106626 -2.40925e-05 0.000109314
0.0063 0 0.000107786 -2.2587e-05 0.000110127
0.006325 0 0.000108959 -2.10709e-05 0.000110977
0.00635 0 0.000110143 -1.95436e-05 0.000111863
0.006375 0 0.000111336 -1.80044e-05 0.000112783
0.0064 0 0.000112539 -1.64526e-05 0.000113735
0.006425 0 0.000113748 -1.48876e-05 0.000114718
0.00645 0 0.000114963 -1.33088e-05 0.000115731
0.006475 0 0.00011618 -1.17156e-05 0.00011677
0.0065 0 0.000117399 -1.01077e-05 0.000117833
0.006525 0 0.000118616 -8.48442e-06 0.000118919
0.00655 0 0.00011983 -6.84555e-06 0.000120025
0.006575 0 0.000121037 -5.19075e-06 0.000121148
0.0066 0 0.000122235 -3.51979e-06 0.000122286
0.006625 0 0.000123421 -1.83251e-06 0.000123435
0.00665 0 0.000124593 -1.28851e-07 0.000124593
0.006675 0 0.000125747 1.59118e-06 0.000125757
0.0067 0 0.000126881 3.32749e-06 0.000126924
0.006725 0 0.000127991 5.07989e-06 0.000128092
0.00675 0 0.000129074 6.84812e-06 0.000129256
0.006775 0 0.000130129 8.63181e-06 0.000130414
0.0068 0 0.00013115 1.04305e-05 0.000131564
0.006825 0 0.000132136 1.22438e-05 0.000132702
0.00685 0 0.000133084 1.40708e-05 0.000133826
0.006875 0 0.00013399 1.59111e-05 0.000134932
0.0069 0 0.000134852 1.77638e-05 0.000136017
0.006925 0 0.000135668 1.9628e-05 0.00013708
0.00695 0 0.000136434 2.15027e-05 0.000138118
0.006975 0 0.000137147 2.3387e-05 0.000139127
0.007 0 0.000137806 2.52798e-05 0.000140106
0.007025 0 0.000138408 2.71798e-05 0.000141052
0.00705 0 0.000138951 2.90858e-05 0.000141963
0.007075 0 0.000139432 3.09965e-05 0.000142836
0.0071 0 0.00013985 3.29104e-05 0.00014367
0.007125 0 0.000140202 3.48262e-05 0.000144462
0.00715 0 0.000140486 3.67421e-05 0.000145212
0.007175 0 0.000140702 3.86568e-05 0.000145916
0.0072 0 0.000140847 4.05684e-05 0.000146573
0.007225 0 0.000140919 4.24753e-05 0.000147181
0.00725 0 0.000140918 4.43757e-05 0.00014774
0.007275 0 0.000140842 4.62677e-05 0.000148247
0.0073 0 0.000140691 4.81495e-05 0.000148702
0.007325 0 0.000140462 5.00191e-05 0.000149102
0.00735 0 0.000140156 5.18746e-05 0.000149448
0.007375 0 0.000139772 5.37139e-05 0.000149737
0.0074 0 0.000139308 5.55349e-05 0.00014997
0.007425 0 0.000138765 5.73358e-05 0.000150144
0.00745 0 0.000138143 5.91142e-05 0.00015026
0.007475 0 0.000137441 6.08682e-05 0.000150316
0.0075 0 0.000136659 6.25956e-05 0.000150313
0.007525 0 0.000135798 6.42943e-05 0.000150249
0.00755 0 0.000134857 6.59622e-05 0.000150125
0.007575 0 0.000133838 6.75972e-05 0.00014994
0.0076 0 0.00013274 6.91972e-05 0.000149694
0.007625 0 0.000131565 7.07603e-05 0.000149386
0.00765 0 0.000130313 7.22844e-05 0.000149019
0.007675 0 0.000128986 7.37677e-05 0.00014859
0.0077 0 0.000127584 7.52082e-05 0.000148101
0.007725 0 0.00012611 7.66041e-05 0.000147553
0.00775 0 0.000124565 7.79537e-05 0.000146946
0.007775 0 0.000122949 7.92554e-05 0.000146281
0.0078 0 0.000121267 8.05076e-05 0.000145558
0.007825 0 0.000119518 8.17089e-05 0.000144779
0.00785 0 0.000117706 8.2858e-05 0.000143945
0.007875 0 0.000115833 8.39536e-05 0.000143058
0.0079 0 0.000113902 8.49946e-05 0.000142119
0.007925 0 0.000111914 8.598e-05 0.000141129
0.00795 0 0.000109874 8.69091e-05 0.000140091
0.007975 0 0.000107783 8.77809e-05 0.000139006
0.008 0 0.000105644 8.85951e-05 0.000137876
0.008025 0 0.000103462 8.93511e-05 0.000136704
0.00805 0 0.000101238 9.00487e-05 0.000135492
0.008075 0 9.89775e-05 9.06875e-05 0.000134241
0.0081 0 9.66824e-05 9.12676e-05 0.000132956
0.008125 0 9.43566e-05 9.17891e-05 0.000131637
0.00815 0 9.20036e-05 9.22522e-05 0.000130289
0.008175 0 8.9627e-05 9.26572e-05 0.000128912
0.0082 0 8.72304e-05 9.30047e-05 0.000127511
0.008225 0 8.48172e-05 9.32951e-05 0.000126087
0.00825 0 8.23913e-05 9.35293e-05 0.000124644
0.008275 0 7.9956e-05 9.3708e-05 0.000123183
0.0083 0 7.75149e-05 9.38322e-05 0.000121709
0.008325 0 7.50714e-05 9.39029e-05 0.000120223
0.00835 0 7.2629e-05 9.39213e-05 0.000118727
0.008375 0 7.01909e-05 9.38885e-05 0.000117225
0.0084 0 6.77603e-05 9.38059e-05 0.00011572
0.008425 0 6.53403e-05 9.36748e-05 0.000114212
0.00845 0 6.29338e-05 9.34967e-05 0.000112705
0.008475 0 6.05437e-05 9.32732e-05 0.0001112
0.0085 0 5.81725e-05 9.30056e-05 0.0001097
0.008525 0 5.58228e-05 9.26957e-05 0.000108207
0.00855 0 5.34968e-05 9.23451e-05 0.000106722
0.008575 0 5.11967e-05 9.19554e-05 0.000105247
0.0086 0 4.89244e-05 9.15284e-05 0.000103784
0.008625 0 4.66815e-05 9.10657e-05 0.000102333
0.00865 0 4.44697e-05 9.05691e-05 0.000100898
0.008675 0 4.22903e-05 9.00402e-05 9.94772e-05
0.0087 0 4.01443e-05 8.94807e-05 9.80733e-05
0.008725 0 3.80327e-05 8.88924e-05 9.66868e-05
0.00875 0 3.59562e-05 8.82768e-05 9.53186e-05
0.008775 0 3.39154e-05 8.76355e-05 9.39693e-05
0.0088 0 3.19105e-05 8.69701e-05 9.26395e-05
0.008825 0 2.99417e-05 8.62822e-05 9.13298e-05
0.00885 0 2.80091e-05 8.55732e-05 9.00404e-05
0.008875 0 2.61123e-05 8.48445e-05 8.87719e-05
0.0089 0 2.42511e-05 8.40975e-05 8.75243e-05
0.008925 0 2.24249e-05 8.33334e-05 8.6298e-05
0.00895 0 2.06332e-05 8.25535e-05 8.5093e-05
0.008975 0 1.88751e-05 8.17589e-05 8.39094e-05
0.009 0 1.715e-05 8.09506e-05 8.27474e-05
0.009025 0 1.54567e-05 8.01297e-05 8.16068e-05
0.00905 0 1.37943e-05 7.9297e-05 8.04879e-05
0.009075 0 1.21618e-05 7.84533e-05 7.93904e-05
0.0091 0 1.05579e-05 7.75994e-05 7.83144e-05
0.009125 0 8.98162e-06 7.6736e-05 7.72599e-05
0.00915 0 7.43165e-06 7.58636e-05 7.62268e-05
0.009175 0 5.90683e-06 7.49828e-05 7.52151e-05
0.0092 0 4.40599e-06 7.40939e-05 7.42248e-05
0.009225 0 2.92797e-06 7.31974e-05 7.32559e-05
0.00925 0 1.47162e-06 7.22935e-05 7.23084e-05
0.009275 0 3.58588e-08 7.13824e-05 7.13824e-05
0.0093 0 -1.38037e-06 7.04645e-05 7.0478e-05
0.009325 0 -2.77804e-06 6.95396e-05 6.95951e-05
0.00935 0 -4.15809e-06 6.86081e-05 6.8734e-05
0.009375 0 -5.52134e-06 6.76698e-05 6.78947e-05
0.0094 0 -6.86857e-06 6.67248e-05 6.70774e-05
0.009425 0 -8.20046e-06 6.5773e-05 6.62822e-05
0.00945 0 -9.5176e-06 6.48143e-05 6.55094e-05
0.009475 0 -1.08205e-05 6.38487e-05 6.47591e-05
0.0095 0 -1.21095e-05 6.28761e-05 6.40316e-05
0.009525 0 -1.33851e-05 6.18962e-05 6.3327e-05
0.00955 0 -1.46473e-05 6.09091e-05 6.26455e-05
0.009575 0 -1.58963e-05 5.99145e-05 6.19874e-05
0.0096 0 -1.71321e-05 5.89124e-05 6.13529e-05
0.009625 0 -1.83548e-05 5.79025e-05 6.07421e-05
0.00965 0 -1.95641e-05 5.68849e-05 6.01551e-05
0.009675 0 -2.07597e-05 5.58593e-05 5.95922e-05
0.0097 0 -2.19415e-05 5.48257e-05 5.90533e-05
0.009725 0 -2.3109e-05 5.37841e-05 5.85385e-05
0.00975 0 -2.42617e-05 5.27344e-05 5.80478e-05
0.009775 0 -2.53991e-05 5.16767e-05 5.75812e-05
0.0098 0 -2.65207e-05 5.06108e-05 5.71384e-05
0.009825 0 -2.76256e-05 4.9537e-05 5.67194e-05
0.00985 0 -2.87134e-05 4.84553e-05 5.63238e-05
0.009875 0 -2.97831e-05 4.73658e-05 5.59513e-05
0.0099 0 -3.0834e-05 4.62687e-05 5.56016e-05
0.009925 0 -3.18653e-05 4.51643e-05 5.5274e-05
0.00995 0 -3.28761e-05 4.40527e-05 5.4968e-05
0.009975 0 -3.38654e-05 4.29343e-05 5.46829e-05
0.01 0 -3.48324e-05 4.18095e-05 5.44181e-05
0.010025 0 -3.57761e-05 4.06785e-05 5.41726e-05
0.01005 0 -3.66956e-05 3.95418e-05 5.39456e-05
0.010075 0 -3.75898e-05 3.84e-05 5.3736e-05
0.0101 0 -3.84579e-05 3.72535e-05 5.35428e-05
0.010125 0 -3.92987e-05 3.61029e-05 5.33648e-05
0.01015 0 -4.01114e-05 3.49487e-05 5.32009e-05
0.010175 0 -4.08949e-05 3.37917e-05 5.30497e-05
0.0102 0 -4.16483e-05 3.26324e-05 5.29099e-05
0.010225 0 -4.23707e-05 3.14717e-05 5.27802e-05
0.01025 0 -4.3061e-05 3.03103e-05 5.2659e-05
0.010275 0 -4.37185e-05 2.9149e-05 5.25449e-05
0.0103 0 -4.43421e-05 2.79886e-05 5.24364e-05
0.010325 0 -4.4931e-05 2.68299e-05 5.2332e-05
0.01035 0 -4.54844e-05 2.5674e-05 5.22301e-05
0.010375 0 -4.60014e-05 2.45216e-05 5.21291e-05
0.0104 0 -4.64813e-05 2.33738e-05 5.20274e-05
0.010425 0 -4.69234e-05 2.22315e-05 5.19234e-05
0.01045 0 -4.73269e-05 2.10956e-05 5.18156e-05
0.010475 0 -4.76912e-05 1.99672e-05 5.17025e-05
0.0105 0 -4.80158e-05 1.88473e-05 5.15824e-05
0.010525 0 -4.83e-05 1.77369e-05 5.14538e-05
0.01055 0 -4.85434e-05 1.6637e-05 5.13152e-05
0.010575 0 -4.87456e-05 1.55486e-05 5.11653e-05
0.0106 0 -4.89061e-05 1.44727e-05 5.10026e-05
0.010625 0 -4.90246e-05 1.34104e-05 5.08257e-05
0.01065 0 -4.91009e-05 1.23625e-05 5.06333e-05
0.010675 0 -4.91348e-05 1.13301e-05 5.04242e-05
0.0107 0 -4.91262e-05 1.03141e-05 5.01973e-05
0.010725 0 -4.9075e-05 9.31548e-06 4.99514e-05
0.01075 0 -4.89813e-05 8.33503e-06 4.96854e-05
0.010775 0 -4.88451e-05 7.37365e-06 4.93985e-05
0.0108 0 -4.86666e-05 6.43215e-06 4.90898e-05
0.010825 0 -4.8446e-05 5.5113e-06 4.87585e-05
0.01085 0 -4.81837e-05 4.61184e-06 4.84039e-05
0.010875 0 -4.788e-05 3.73444e-06 4.80254e-05
0.0109 0 -4.75354e-05 2.87975e-06 4.76225e-05
0.010925 0 -4.71504e-05 2.04834e-06 4.71949e-05
0.01095 0 -4.67257e-05 1.24074e-06 4.67422e-05
0.010975 0 -4.62619e-05 4.57423e-07 4.62642e-05
0.011 0 -4.57598e-05 -3.01193e-07 4.57608e-05
0.011025 0 -4.52202e-05 -1.03475e-06 4.52321e-05
0.01105 0 -4.46441e-05 -1.74296e-06 4.46781e-05
0.011075 0 -4.40323e-05 -2.42556e-06 4.40991e-05
0.0111 0 -4.3386e-05 -3.08239e-06 4.34953e-05
0.011125 0 -4.27062e-05 -3.71332e-06 4.28673e-05
0.01115 0 -4.19941e-05 -4.31828e-06 4.22155e-05
0.011175 0 -4.12509e-05 -4.89727e-06 4.15406e-05
0.0112 0 -4.0478e-05 -5.45033e-06 4.08433e-05
0.011225 0 -3.96766e-05 -5.97757e-06 4.01243e-05
0.01125 0 -3.88481e-05 -6.47913e-06 3.93847e-05
0.011275 0 -3.7994e-05 -6.95523e-06 3.86254e-05
0.0113 0 -3.71158e-05 -7.40612e-06 3.78475e-05
0.011325 0 -3.62149e-05 -7.83209e-06 3.70522e-05
0.01135 0 -3.5293e-05 -8.2335e-06 3.62407e-05
0.011375 0 -3.43517e-05 -8.61072e-06 3.54145e-05
0.0114 0 -3.33926e-05 -8.96418e-06 3.45749e-05
0.011425 0 -3.24173e-05 -9.29435e-06 3.37234e-05
0.01145 0 -3.14276e-05 -9.60171e-06 3.28616e-05
0.011475 0 -3.0425e-05 -9.88679e-06 3.19911e-05
0.0115 0 -2.94115e-05 -1.01502e-05 3.11137e-05
0.011525 0 -2.83886e-05 -1.03924e-05 3.02311e-05
0.01155 0 -2.73582e-05 -1.06141e-05 2.9345e-05
0.011575 0 -2.6322e-05 -1.08159e-05 2.84575e-05
0.0116 0 -2.52817e-05 -1.09984e-05 2.75704e-05
0.011625 0 -2.4239e-05 -1.11623e-05 2.66857e-05
0.01165 0 -2.31958e-05 -1.13083e-05 2.58055e-05
0.011675 0 -2.21537e-05 -1.14371e-05 2.49318e-05
0.0117 0 -2.11145e-05 -1.15493e-05 2.40667e-05
0.011725 0 -2.00798e-05 -1.16457e-05 2.32125e-05
0.01175 0 -1.90514e-05 -1.17271e-05 2.23714e-05
0.011775 0 -1.80308e-05 -1.1794e-05 2.15455e-05
0.0118 0 -1.70198e-05 -1.18473e-05 2.07372e-05
0.011825 0 -1.60199e-05 -1.18876e-05 1.99487e-05
0.01185 0 -1.50326e-05 -1.19158e-05 1.91824e-05
0.011875 0 -1.40595e-05 -1.19325e-05 1.84406e-05
0.0119 0 -1.31022e-05 -1.19385e-05 1.77255e-05
0.011925 0 -1.21619e-05 -1.19345e-05 1.70395e-05
0.01195 0 -1.12402e-05 -1.19213e-05 1.63847e-05
0.011975 0 -1.03383e-05 -1.18994e-05 1.57632e-05
0.012 0 -9.45768e-06 -1.18698e-05 1.5177e-05
0.012025 0 -8.59947e-06 -1.18331e-05 1.46278e-05
0.01205 0 -7.7649e-06 -1.179e-05 1.41172e-05
0.012075 0 -6.95513e-06 -1.17411e-05 1.36465e-05
0.0121 0 -6.17123e-06 -1.16873e-05 1.32166e-05
0.012125 0 -5.41426e-06 -1.16293e-05 1.28278e-05
0.01215 0 -4.68517e-06 -1.15676e-05 1.24804e-05
0.012175 0 -3.9849e-06 -1.15029e-05 1.21736e-05
0.0122 0 -3.31428e-06 -1.14361e-05 1.19066e-05
0.012225 0 -2.67411e-06 -1.13676e-05 1.16779e-05
0.01225 0 -2.06513e-06 -1.12982e-05 1.14854e-05
0.012275 0 -1.48801e-06 -1.12286e-05 1.13267e-05
0.0123 0 -9.43335e-07 -1.11593e-05 1.11991e-05
0.012325 0 -4.31663e-07 -1.1091e-05 1.10994e-05
0.01235 0 4.65298e-08 -1.10243e-05 1.10244e-05
0.012375 0 4.90827e-07 -1.09599e-05 1.09709e-05
0.0124 0 9.00875e-07 -1.08983e-05 1.09355e-05
0.012425 0 1.27638e-06 -1.08402e-05 1.09151e-05
0.01245 0 1.61711e-06 -1.07861e-05 1.09067e-05
0.012475 0 1.9229e-06 -1.07367e-05 1.09075e-05
0.0125 0 2.19363e-06 -1.06925e-05 1.09152e-05
0.012525 0 2.42926e-06 -1.0654e-05 1.09275e-05
0.01255 0 2.62977e-06 -1.06219e-05 1.09426e-05
0.012575 0 2.79525e-06 -1.05967e-05 1.09591e-05
0.0126 0 2.92579e-06 -1.05788e-05 1.0976e-05
0.012625 0 3.02157e-06 -1.0569e-05 1.09924e-05
0.01265 0 3.08281e-06 -1.05676e-05 1.10081e-05
0.012675 0 3.10978e-06 -1.05752e-05 1.10229e-05
0.0127 0 3.1028e-06 -1.05923e-05 1.10374e-05
0.012725 0 3.06222e-06 -1.06194e-05 1.10521e-05
0.01275 0 2.98847e-06 -1.0657e-05 1.10681e-05
0.012775 0 2.882e-06 -1.07055e-05 1.10867e-05
0.0128 0 2.74329e-06 -1.07655e-05 1.11096e-05
0.012825 0 2.57289e-06 -1.08374e-05 1.11386e-05
0.01285 0 2.37136e-06 -1.09216e-05 1.11761e-05
0.012875 0 2.13931e-06 -1.10187e-05 1.12244e-05
0.0129 0 1.87739e-06 -1.11289e-05 1.12861e-05
0.012925 0 1.58626e-06 -1.12528e-05 1.1364e-05
0.01295 0 1.26663e-06 -1.13907e-05 1.14609e-05
0.012975 0 9.19214e-07 -1.15431e-05 1.15796e-05
0.013 0 5.44782e-07 -1.17103e-05 1.1723e-05
0.013025 0 1.44105e-07 -1.18928e-05 1.18936e-05
0.01305 0 -2.82015e-07 -1.20908e-05 1.20941e-05
0.013075 0 -7.32761e-07 -1.23048e-05 1.23266e-05
0.0131 0 -1.20729e-06 -1.2535e-05 1.2593e-05
0.013125 0 -1.70477e-06 -1.27819e-05 1.2895e-05
0.01315 0 -2.2243e-06 -1.30456e-05 1.32339e-05
0.013175 0 -2.76504e-06 -1.33266e-05 1.36104e-05
0.0132 0 -3.32607e-06 -1.3625e-05 1.40251e-05
0.013225 0 -3.90651e-06 -1.39412e-05 1.44782e-05
0.01325 0 -4.50545e-06 -1.42754e-05 1.49695e-05
0.013275 0 -5.12198e-06 -1.46278e-05 1.54986e-05
0.0133 0 -5.7552e-06 -1.49986e-05 1.60649e-05
0.013325 0 -6.40419e-06 -1.5388e-05 1.66675e-05
0.01335 0 -7.06803e-06 -1.57962e-05 1.73054e-05
0.013375 0 -7.74581e-06 -1.62234e-05 1.79776e-05
0.0134 0 -8.43663e-06 -1.66695e-05 1.86829e-05
0.013425 0 -9.13958e-06 -1.71349e-05 1.942e-05
0.01345 0 -9.85376e-06 -1.76194e-05 2.01876e-05
0.013475 0 -1.05783e-05 -1.81232e-05 2.09845e-05
0.0135 0 -1.13123e-05 -1.86462e-05 2.18094e-05
0.013525 0 -1.20548e-05 -1.91885e-05 2.26609e-05
0.01355 0 -1.28051e-05 -1.975e-05 2.35379e-05
0.013575 0 -1.35623e-05 -2.03307e-05 2.44392e-05
0.0136 0 -1.43255e-05 -2.09304e-05 2.53634e-05
0.013625 0 -1.50939e-05 -2.1549e-05 2.63094e-05
0.01365 0 -1.58667e-05 -2.21864e-05 2.72761e-05
0.013675 0 -1.66431e-05 -2.28423e-05 2.82624e-05
0.0137 0 -1.74223e-05 -2.35165e-05 2.92671e-05
0.013725 0 -1.82037e-05 -2.42087e-05 3.02892e-05
0.01375 0 -1.89864e-05 -2.49187e-05 3.13277e-05
0.013775 0 -1.97697e-05 -2.56461e-05 3.23815e-05
0.0138 0 -2.05529e-05 -2.63904e-05 3.34496e-05
0.013825 0 -2.13354e-05 -2.71514e-05 3.45311e-05
0.01385 0 -2.21165e-05 -2.79285e-05 3.5625e-05
0.013875 0 -2.28956e-05 -2.87212e-05 3.67304e-05
0.0139 0 -2.36721e-05 -2.95291e-05 3.78462e-05
0.013925 0 -2.44453e-05 -3.03516e-05 3.89717e-05
0.01395 0 -2.52147e-05 -3.11881e-05 4.01059e-05
0.013975 0 -2.59798e-05 -3.2038e-05 4.12478e-05
0.014 0 -2.67401e-05 -3.29005e-05 4.23967e-05
0.014025 0 -2.74951e-05 -3.37751e-05 4.35515e-05
0.01405 0 -2.82443e-05 -3.46609e-05 4.47115e-05
0.014075 0 -2.89873e-05 -3.55574e-05 4.58758e-05
0.0141 0 -2.97237e-05 -3.64635e-05 4.70434e-05
0.014125 0 -3.0453e-05 -3.73787e-05 4.82136e-05
0.01415 0 -3.1175e-05 -3.83019e-05 4.93854e-05
0.014175 0 -3.18894e-05 -3.92324e-05 5.0558e-05
0.0142 0 -3.25957e-05 -4.01693e-05 5.17306e-05
0.014225 0 -3.32938e-05 -4.11117e-05 5.29022e-05
0.01425 0 -3.39833e-05 -4.20587e-05 5.40722e-05
0.014275 0 -3.46642e-05 -4.30092e-05 5.52395e-05
0.0143 0 -3.53361e-05 -4.39625e-05 5.64034e-05
0.014325 0 -3.59989e-05 -4.49175e-05 5.7563e-05
0.01435 0 -3.66525e-05 -4.58732e-05 5.87176e-05
0.014375 0 -3.72968e-05 -4.68287e-05 5.98663e-05
0.0144 0 -3.79315e-05 -4.7783e-05 6.10084e-05
0.014425 0 -3.85568e-05 -4.87351e-05 6.21429e-05
0.01445 0 -3.91725e-05 -4.9684e-05 6.32692e-05
0.014475 0 -3.97787e-05 -5.06288e-05 6.43865e-05
0.0145 0 -4.03753e-05 -5.15683e-05 6.54939e-05
0.014525 0 -4.09623e-05 -5.25018e-05 6.65909e-05
0.01455 0 -4.15399e-05 -5.34281e-05 6.76766e-05
0.014575 0 -4.2108e-05 -5.43463e-05 6.87503e-05
0.0146 0 -4.26668e-05 -5.52554e-05 6.98113e-05
0.014625 0 -4.32164e-05 -5.61546e-05 7.0859e-05
0.01465 0 -4.37569e-05 -5.70429e-05 7.18927e-05
0.014675 0 -4.42885e-05 -5.79193e-05 7.29117e-05
0.0147 0 -4.48112e-05 -5.87829e-05 7.39154e-05
0.014725 0 -4.53254e-05 -5.9633e-05 7.49032e-05
0.01475 0 -4.58312e-05 -6.04685e-05 7.58745e-05
0.014775 0 -4.63288e-05 -6.12887e-05 7.68288e-05
0.0148 0 -4.68185e-05 -6.20928e-05 7.77656e-05
0.014825 0 -4.73003e-05 -6.28799e-05 7.86842e-05
0.01485 0 -4.77747e-05 -6.36492e-05 7.95842e-05
0.014875 0 -4.82419e-05 -6.44e-05 8.04652e-05
0.0149 0 -4.87021e-05 -6.51316e-05 8.13266e-05
0.014925 0 -4.91555e-05 -6.58432e-05 8.21681e-05
0.01495 0 -4.96025e-05 -6.65341e-05 8.29892e-05
0.014975 0 -5.00434e-05 -6.72038e-05 8.37895e-05
0.015 0 -5.04783e-05 -6.78514e-05 8.45688e-05
0.015025 0 -5.09077e-05 -6.84765e-05 8.53266e-05
0.01505 0 -5.13317e-05 -6.90784e-05 8.60626e-05
0.015075 0 -5.17507e-05 -6.96566e-05 8.67765e-05
0.0151 0 -5.21649e-05 -7.02104e-05 8.74681e-05
0.015125 0 -5.25746e-05 -7.07394e-05 8.81372e-05
0.01515 0 -5.29802e-05 -7.12431e-05 8.87834e-05
0.015175 0 -5.33818e-05 -7.1721e-05 8.94065e-05
0.0152 0 -5.37798e-05 -7.21726e-05 9.00064e-05
0.015225 0 -5.41744e-05 -7.25976e-05 9.05829e-05
0.01525 0 -5.45658e-05 -7.29954e-05 9.11359e-05
0.015275 0 -5.49543e-05 -7.33657e-05 9.16652e-05
0.0153 0 -5.53402e-05 -7.37081e-05 9.21706e-05
0.015325 0 -5.57237e-05 -7.40222e-05 9.26522e-05
0.01535 0 -5.61051e-05 -7.43078e-05 9.31098e-05
0.015375 0 -5.64844e-05 -7.45645e-05 9.35433e-05
0.0154 0 -5.6862e-05 -7.4792e-05 9.39528e-05
0.015425 0 -5.72381e-05 -7.499e-05 9.43382e-05
0.01545 0 -5.76127e-05 -7.51583e-05 9.46995e-05
0.015475 0 -5.79862e-05 -7.52966e-05 9.50367e-05
0.0155 0 -5.83587e-05 -7.54046e-05 9.53499e-05
0.015525 0 -5.87304e-05 -7.54822e-05 9.5639e-05
0.01555 0 -5.91013e-05 -7.55292e-05 9.59042e-05
0.015575 0 -5.94717e-05 -7.55453e-05 9.61456e-05
0.0156 0 -5.98417e-05 -7.55304e-05 9.63632e-05
0.015625 0 -6.02114e-05 -7.54843e-05 9.65572e-05
0.01565 0 -6.05809e-05 -7.54069e-05 9.67277e-05
0.015675 0 -6.09504e-05 -7.5298e-05 9.68748e-05
0.0157 0 -6.13199e-05 -7.51575e-05 9.69989e-05
0.015725 0 -6.16896e-05 -7.49852e-05 9.70999e-05
0.01575 0 -6.20595e-05 -7.47812e-05 9.71782e-05
0.015775 0 -6.24298e-05 -7.45452e-05 9.7234e-05
0.0158 0 -6.28004e-05 -7.42771e-05 9.72676e-05
0.015825 0 -6.31715e-05 -7.3977e-05 9.72792e-05
0.01585 0 -6.35432e-05 -7.36447e-05 9.72691e-05
0.015875 0 -6.39155e-05 -7.32802e-05 9.72377e-05
0.0159 0 -6.42885e-05 -7.28834e-05 9.71854e-05
0.015925 0 -6.46622e-05 -7.24543e-05 9.71124e-05
0.01595 0 -6.50367e-05 -7.19928e-05 9.70192e-05