# Time forceX forceY forceZ normalForce
0 0 0 0 0
2.5e-05 0.00891217 0.00891217 5.96898e-06 -0.0139903
5e-05 0.0119064 0.0119064 1.14939e-05 -0.0186946
7.5e-05 0.013048 0.0130479 1.72082e-05 -0.0204887
0.0001 0.0132858 0.0132858 2.31005e-05 -0.0208629
0.000125 0.0129469 0.0129469 2.90018e-05 -0.0203311
0.00015 0.0125109 0.0125109 3.47349e-05 -0.0196467
0.000175 0.0123669 0.0123669 4.02192e-05 -0.0194207
0.0002 0.012635 0.012635 4.55004e-05 -0.0198418
0.000225 0.0132178 0.0132178 5.07118e-05 -0.0207571
0.00025 0.0139352 0.0139352 5.6003e-05 -0.0218836
0.000275 0.0146342 0.0146342 6.14813e-05 -0.0229812
0.0003 0.0152398 0.0152398 6.71829e-05 -0.0239321
0.000325 0.0157541 0.0157541 7.30783e-05 -0.0247397
0.00035 0.0162273 0.0162273 7.90997e-05 -0.0254826
0.000375 0.0167211 0.0167211 8.51713e-05 -0.0262578
0.0004 0.0172813 0.0172813 9.12336e-05 -0.0271375
0.000425 0.0179257 0.0179257 9.72547e-05 -0.0281493
0.00045 0.0186444 0.0186444 0.00010323 -0.0292781
0.000475 0.0194104 0.0194104 0.000109174 -0.0304811
0.0005 0.0201914 0.0201914 0.000115108 -0.0317076
0.000525 0.0209602 0.0209602 0.000121055 -0.032915
0.00055 0.0217004 0.0217004 0.000127034 -0.0340775
0.000575 0.0224075 0.0224075 0.000133055 -0.0351881
0.0006 0.0230867 0.0230867 0.000139126 -0.0362546
0.000625 0.0237484 0.0237484 0.000145247 -0.0372938
0.00065 0.0244048 0.0244048 0.000151419 -0.0383246
0.000675 0.0250668 0.0250668 0.000157642 -0.039364
0.0007 0.0257421 0.0257421 0.000163911 -0.0404244
0.000725 0.0264354 0.0264354 0.000170225 -0.041513
0.00075 0.0271484 0.0271484 0.000176579 -0.0426325
0.000775 0.0278808 0.0278808 0.000182967 -0.0437826
0.0008 0.0286312 0.0286312 0.000189382 -0.0449608
0.000825 0.0293972 0.0293972 0.00019582 -0.0461638
0.00085 0.0301766 0.0301766 0.000202276 -0.0473877
0.000875 0.0309671 0.0309671 0.000208744 -0.0486289
0.0009 0.0317664 0.0317664 0.000215224 -0.0498841
0.000925 0.0325729 0.0325729 0.000221714 -0.0511506
0.00095 0.0333854 0.0333854 0.000228214 -0.0524264
0.000975 0.0342031 0.0342031 0.000234724 -0.0537105
0.001 0.0350259 0.0350259 0.000241245 -0.0550027
0.001025 0.0358542 0.0358542 0.000247776 -0.0563033
0.00105 0.0366886 0.0366886 0.000254317 -0.0576135
0.001075 0.0375298 0.0375298 0.000260867 -0.0589344
0.0011 0.0383784 0.0383784 0.000267424 -0.060267
0.001125 0.0392349 0.0392349 0.000273987 -0.0616119
0.00115 0.0400993 0.0400993 0.000280554 -0.0629692
0.001175 0.0409712 0.0409712 0.000287122 -0.0643385
0.0012 0.0418502 0.0418502 0.00029369 -0.0657187
0.001225 0.0427353 0.0427353 0.000300257 -0.0671087
0.00125 0.0436257 0.0436257 0.000306822 -0.0685068
0.001275 0.0445204 0.0445204 0.000313384 -0.0699117
0.0013 0.0454185 0.0454185 0.000319943 -0.0713221
0.001325 0.0463195 0.0463195 0.000326499 -0.0727369
0.00135 0.0472229 0.0472229 0.000333051 -0.0741556
0.001375 0.0481285 0.0481285 0.0003396 -0.0755776
0.0014 0.0490362 0.0490362 0.000346146 -0.0770029
0.001425 0.049946 0.049946 0.000352688 -0.0784316
0.00145 0.050858 0.050858 0.000359226 -0.0798638
0.001475 0.0517725 0.0517725 0.00036576 -0.0812998
0.0015 0.0526895 0.0526895 0.000372289 -0.0827397
0.001525 0.0536091 0.0536091 0.000378813 -0.0841838
0.00155 0.0545314 0.0545314 0.000385331 -0.0856321
0.001575 0.0554563 0.0554563 0.000391842 -0.0870844
0.0016 0.0563837 0.0563837 0.000398345 -0.0885407
0.001625 0.0573135 0.0573135 0.00040484 -0.0900008
0.00165 0.0582455 0.0582455 0.000411326 -0.0914644
0.001675 0.0591796 0.0591796 0.000417803 -0.0929311
0.0017 0.0601155 0.0601155 0.00042427 -0.0944008
0.001725 0.0610532 0.0610532 0.000430726 -0.0958732
0.00175 0.0619924 0.0619924 0.000437172 -0.097348
0.001775 0.062933 0.062933 0.000443606 -0.098825
0.0018 0.0638749 0.0638749 0.000450028 -0.100304
0.001825 0.064818 0.064818 0.000456437 -0.101785
0.00185 0.0657622 0.0657622 0.000462835 -0.103268
0.001875 0.0667074 0.0667074 0.000469219 -0.104752
0.0019 0.0676535 0.0676535 0.000475589 -0.106238
0.001925 0.0686004 0.0686004 0.000481946 -0.107725
0.00195 0.0695479 0.0695479 0.000488289 -0.109213
0.001975 0.070496 0.070496 0.000494618 -0.110701
0.002 0.0714444 0.0714444 0.000500932 -0.112191
0.002025 0.0723931 0.0723931 0.000507231 -0.11368
0.00205 0.0733418 0.0733418 0.000513515 -0.11517
0.002075 0.0742906 0.0742906 0.000519784 -0.11666
0.0021 0.0752392 0.0752392 0.000526037 -0.11815
0.002125 0.0761876 0.0761876 0.000532275 -0.119639
0.00215 0.0771357 0.0771357 0.000538497 -0.121128
0.002175 0.0780834 0.0780834 0.000544703 -0.122616
0.0022 0.0790306 0.0790306 0.000550892 -0.124103
0.002225 0.0799773 0.0799773 0.000557066 -0.12559
0.00225 0.0809235 0.0809235 0.000563223 -0.127076
0.002275 0.0818691 0.0818691 0.000569363 -0.128561
0.0023 0.0828141 0.0828141 0.000575485 -0.130045
0.002325 0.0837584 0.0837584 0.000581591 -0.131528
0.00235 0.0847021 0.0847021 0.000587678 -0.133009
0.002375 0.0856451 0.0856451 0.000593746 -0.13449
0.0024 0.0865873 0.0865873 0.000599796 -0.13597
0.002425 0.0875288 0.0875288 0.000605826 -0.137448
0.00245 0.0884694 0.0884694 0.000611835 -0.138925
0.002475 0.0894092 0.0894092 0.000617823 -0.140401
0.0025 0.0903481 0.0903481 0.000623788 -0.141875
0.002525 0.0912861 0.0912861 0.00062973 -0.143348
0.00255 0.0922231 0.0922231 0.000635647 -0.14482
0.002575 0.0931591 0.0931591 0.000641538 -0.14629
0.0026 0.0940941 0.0940941 0.0006474 -0.147758
0.002625 0.0950279 0.0950279 0.000653233 -0.149224
0.00265 0.0959605 0.0959605 0.000659034 -0.150689
0.002675 0.096892 0.096892 0.000664801 -0.152151
0.0027 0.0978221 0.0978221 0.000670532 -0.153612
0.002725 0.098751 0.098751 0.000676223 -0.155071
0.00275 0.0996784 0.0996784 0.000681872 -0.156527
0.002775 0.100604 0.100604 0.000687476 -0.157981
0.0028 0.101529 0.101529 0.000693032 -0.159433
0.002825 0.102452 0.102452 0.000698535 -0.160882
0.00285 0.103373 0.103373 0.000703983 -0.162329
0.002875 0.104293 0.104293 0.000709371 -0.163773
0.0029 0.105211 0.105211 0.000714696 -0.165215
0.002925 0.106127 0.106127 0.000719953 -0.166653
0.00295 0.107041 0.107041 0.000725139 -0.168089
0.002975 0.107954 0.107954 0.000730249 -0.169522
0.003 0.108865 0.108865 0.000735278 -0.170953
0.003025 0.108484 0.108484 0.000738845 -0.170355
0.00305 0.107156 0.107156 0.000740976 -0.16827
0.003075 0.105259 0.105259 0.000741638 -0.16529
0.0031 0.103069 0.103069 0.000740787 -0.161852
0.003125 0.102076 0.102076 0.000739788 -0.160292
0.00315 0.102041 0.102041 0.000738627 -0.160237
0.003175 0.102601 0.102601 0.000737375 -0.161116
0.0032 0.103437 0.103437 0.00073611 -0.162428
0.003225 0.104288 0.104288 0.000734862 -0.163765
0.00325 0.105003 0.105003 0.000733598 -0.164888
0.003275 0.105546 0.105546 0.000732239 -0.165739
0.0033 0.105956 0.105956 0.000730698 -0.166384
0.003325 0.106301 0.106301 0.000728911 -0.166926
0.00335 0.106632 0.106632 0.000726853 -0.167446
0.003375 0.10697 0.10697 0.000724541 -0.167977
0.0034 0.107308 0.107308 0.000722018 -0.168507
0.003425 0.107625 0.107625 0.000719335 -0.169006
0.00345 0.107901 0.107901 0.000716538 -0.169439
0.003475 0.108126 0.108126 0.000713657 -0.169793
0.0035 0.108304 0.108304 0.000710701 -0.170072
0.003525 0.108449 0.108449 0.00070767 -0.170299
0.00355 0.108578 0.108578 0.000704549 -0.170503
0.003575 0.108712 0.108712 0.000701325 -0.170712
0.0036 0.10886 0.10886 0.000697985 -0.170945
0.003625 0.109029 0.109029 0.000694518 -0.171209
0.00365 0.109215 0.109215 0.00069092 -0.171502
0.003675 0.109414 0.109414 0.000687189 -0.171814
0.0037 0.109615 0.109615 0.000683329 -0.17213
0.003725 0.109811 0.109811 0.000679343 -0.172437
0.00375 0.109994 0.109994 0.000675238 -0.172725
0.003775 0.11016 0.11016 0.000671023 -0.172986
0.0038 0.110307 0.110307 0.000666705 -0.173217
0.003825 0.110435 0.110435 0.000662292 -0.173418
0.00385 0.110545 0.110545 0.000657794 -0.173591
0.003875 0.110639 0.110639 0.000653217 -0.173739
0.0039 0.110719 0.110719 0.000648569 -0.173865
0.003925 0.110789 0.110789 0.000643854 -0.173974
0.00395 0.110849 0.110849 0.000639078 -0.174068
0.003975 0.110901 0.110901 0.000634243 -0.17415
0.004 0.110946 0.110946 0.000629351 -0.174221
0.004025 0.110985 0.110985 0.000624405 -0.174283
0.00405 0.111018 0.111018 0.000619407 -0.174334
0.004075 0.111044 0.111044 0.000614359 -0.174376
0.0041 0.111064 0.111064 0.000609264 -0.174406
0.004125 0.111075 0.111075 0.000604126 -0.174424
0.00415 0.111079 0.111079 0.000598946 -0.17443
0.004175 0.111074 0.111074 0.000593731 -0.174423
0.0042 0.111062 0.111062 0.000588482 -0.174403
0.004225 0.111041 0.111041 0.000583203 -0.17437
0.00425 0.111013 0.111013 0.000577898 -0.174327
0.004275 0.110979 0.110979 0.000572569 -0.174273
0.0043 0.11094 0.11094 0.000567219 -0.174211
0.004325 0.110895 0.110895 0.00056185 -0.174141
0.00435 0.110847 0.110847 0.000556463 -0.174065
0.004375 0.110795 0.110795 0.00055106 -0.173984
0.0044 0.11074 0.11074 0.000545642 -0.173897
0.004425 0.110682 0.110682 0.00054021 -0.173807
0.00445 0.110622 0.110622 0.000534766 -0.173712
0.004475 0.110559 0.110559 0.00052931 -0.173614
0.0045 0.110494 0.110494 0.000523845 -0.173511
0.004525 0.110426 0.110426 0.000518372 -0.173404
0.00455 0.110355 0.110355 0.000512892 -0.173293
0.004575 0.110281 0.110281 0.000507407 -0.173177
0.0046 0.110204 0.110204 0.000501919 -0.173057
0.004625 0.110125 0.110125 0.000496429 -0.172932
0.00465 0.110043 0.110043 0.000490939 -0.172803
0.004675 0.109959 0.109959 0.00048545 -0.172671
0.0047 0.109872 0.109872 0.000479964 -0.172535
0.004725 0.109783 0.109783 0.000474481 -0.172395
0.00475 0.109693 0.109693 0.000469005 -0.172253
0.004775 0.1096 0.1096 0.000463534 -0.172108
0.0048 0.109506 0.109506 0.000458072 -0.17196
0.004825 0.109411 0.109411 0.000452618 -0.17181
0.00485 0.109314 0.109314 0.000447175 -0.171658
0.004875 0.109215 0.109215 0.000441742 -0.171503
0.0049 0.109116 0.109116 0.000436322 -0.171347
0.004925 0.109016 0.109016 0.000430915 -0.171189
0.00495 0.108914 0.108914 0.000425522 -0.17103
0.004975 0.108812 0.108812 0.000420144 -0.17087
0.005 0.108709 0.108709 0.000414783 -0.170708
0.005025 0.108605 0.108605 0.000409438 -0.170545
0.00505 0.108501 0.108501 0.000404112 -0.170382
0.005075 0.108397 0.108397 0.000398804 -0.170218
0.0051 0.108292 0.108292 0.000393515 -0.170054
0.005125 0.108188 0.108188 0.000388247 -0.169889
0.00515 0.108083 0.108083 0.000383001 -0.169725
0.005175 0.107978 0.107978 0.000377777 -0.16956
0.0052 0.107874 0.107874 0.000372575 -0.169396
0.005225 0.107769 0.107769 0.000367398 -0.169232
0.00525 0.107665 0.107665 0.000362245 -0.169069
0.005275 0.107561 0.107561 0.000357119 -0.168906
0.0053 0.107458 0.107458 0.000352019 -0.168743
0.005325 0.107355 0.107355 0.000346948 -0.168581
0.00535 0.107252 0.107252 0.000341906 -0.168419
0.005375 0.107149 0.107149 0.000336894 -0.168258
0.0054 0.107047 0.107047 0.000331916 -0.168097
0.005425 0.106944 0.106944 0.000326971 -0.167937
0.00545 0.106843 0.106843 0.000322062 -0.167777
0.005475 0.106741 0.106741 0.00031719 -0.167618
0.0055 0.10664 0.10664 0.000312359 -0.167459
0.005525 0.106539 0.106539 0.000307569 -0.1673
0.00555 0.106439 0.106439 0.000302824 -0.167143
0.005575 0.106338 0.106338 0.000298127 -0.166985
0.0056 0.106239 0.106239 0.00029348 -0.166828
0.005625 0.106139 0.106139 0.000288886 -0.166672
0.00565 0.10604 0.10604 0.000284349 -0.166516
0.005675 0.105941 0.105941 0.000279873 -0.166361
0.0057 0.105842 0.105842 0.000275462 -0.166206
0.005725 0.105744 0.105744 0.00027112 -0.166052
0.00575 0.105646 0.105646 0.000266851 -0.165898
0.005775 0.105549 0.105549 0.000262661 -0.165745
0.0058 0.105452 0.105452 0.000258554 -0.165593
0.005825 0.105356 0.105356 0.000254536 -0.165442
0.00585 0.10526 0.10526 0.000250612 -0.165291
0.005875 0.105164 0.105164 0.000246789 -0.165141
0.0059 0.10507 0.10507 0.000243073 -0.164992
0.005925 0.104975 0.104975 0.000239468 -0.164844
0.00595 0.104881 0.104881 0.000235983 -0.164697
0.005975 0.104788 0.104788 0.000232623 -0.164551
0.006 0.104696 0.104696 0.000229394 -0.164405
0.006025 0.104604 0.104604 0.000226303 -0.164261
0.00605 0.104512 0.104512 0.000223356 -0.164117
0.006075 0.104421 0.104421 0.00022056 -0.163974
0.0061 0.104331 0.104331 0.00021792 -0.163833
0.006125 0.104241 0.104241 0.000215442 -0.163691
0.00615 0.104152 0.104152 0.000213131 -0.163551
0.006175 0.104063 0.104063 0.000210992 -0.163412
0.0062 0.103974 0.103974 0.000209029 -0.163273
0.006225 0.103886 0.103886 0.000207247 -0.163134
0.00625 0.103799 0.103799 0.00020565 -0.162997
0.006275 0.103711 0.103711 0.000204239 -0.162859
0.0063 0.103624 0.103624 0.000203018 -0.162722
0.006325 0.103537 0.103537 0.000201988 -0.162585
0.00635 0.10345 0.10345 0.00020115 -0.162449
0.006375 0.103363 0.103363 0.000200505 -0.162312
0.0064 0.103276 0.103276 0.000200053 -0.162176
0.006425 0.103189 0.103189 0.000199792 -0.162039
0.00645 0.103101 0.103101 0.000199722 -0.161902
0.006475 0.103014 0.103014 0.000199841 -0.161764
0.0065 0.102926 0.102926 0.000200146 -0.161627
0.006525 0.102838 0.102838 0.000200635 -0.161488
0.00655 0.10275 0.10275 0.000201304 -0.161349
0.006575 0.102661 0.102661 0.00020215 -0.16121
0.0066 0.102571 0.102571 0.000203168 -0.16107
0.006625 0.102482 0.102482 0.000204355 -0.160928
0.00665 0.102391 0.102391 0.000205705 -0.160786
0.006675 0.1023 0.1023 0.000207215 -0.160643
0.0067 0.102208 0.102208 0.000208878 -0.160499
0.006725 0.102116 0.102116 0.000210691 -0.160354
0.00675 0.102023 0.102023 0.000212648 -0.160208
0.006775 0.101929 0.101929 0.000214744 -0.160061
0.0068 0.101834 0.101834 0.000216974 -0.159912
0.006825 0.101738 0.101738 0.000219333 -0.159762
0.00685 0.101642 0.101642 0.000221815 -0.15961
0.006875 0.101545 0.101545 0.000224415 -0.159457
0.0069 0.101446 0.101446 0.00022713 -0.159303
0.006925 0.101347 0.101347 0.000229953 -0.159146
0.00695 0.101246 0.101246 0.000232879 -0.158989
0.006975 0.101144 0.101144 0.000235905 -0.158829
0.007 0.101042 0.101042 0.000239026 -0.158667
0.007025 0.100938 0.100938 0.000242237 -0.158504
0.00705 0.100832 0.100832 0.000245533 -0.158339
0.007075 0.100725 0.100725 0.000248911 -0.158171
0.0071 0.100617 0.100617 0.000252366 -0.158001
0.007125 0.100508 0.100508 0.000255895 -0.157829
0.00715 0.100397 0.100397 0.000259493 -0.157655
0.007175 0.100284 0.100284 0.000263157 -0.157478
0.0072 0.10017 0.10017 0.000266882 -0.157299
0.007225 0.100054 0.100054 0.000270666 -0.157117
0.00725 0.0999363 0.0999363 0.000274504 -0.156932
0.007275 0.0998168 0.0998168 0.000278394 -0.156744
0.0073 0.0996954 0.0996954 0.000282333 -0.156554
0.007325 0.099572 0.099572 0.000286316 -0.15636
0.00735 0.0994467 0.0994467 0.000290341 -0.156163
0.007375 0.0993193 0.0993193 0.000294405 -0.155963
0.0074 0.0991898 0.0991898 0.000298505 -0.15576
0.007425 0.0990581 0.0990581 0.000302639 -0.155553
0.00745 0.0989241 0.0989241 0.000306803 -0.155343
0.007475 0.0987878 0.0987878 0.000310995 -0.155129
0.0075 0.0986492 0.0986492 0.000315213 -0.154911
0.007525 0.0985082 0.0985082 0.000319454 -0.154689
0.00755 0.0983646 0.0983646 0.000323716 -0.154464
0.007575 0.0982185 0.0982185 0.000327997 -0.154235
0.0076 0.0980698 0.0980698 0.000332294 -0.154001
0.007625 0.0979185 0.0979185 0.000336605 -0.153764
0.00765 0.0977644 0.0977644 0.000340929 -0.153522
0.007675 0.0976076 0.0976076 0.000345263 -0.153275
0.0077 0.0974479 0.0974479 0.000349606 -0.153025
0.007725 0.0972854 0.0972854 0.000353956 -0.152769
0.00775 0.0971199 0.0971199 0.000358311 -0.15251
0.007775 0.0969515 0.0969515 0.00036267 -0.152245
0.0078 0.0967799 0.0967799 0.000367031 -0.151976
0.007825 0.0966053 0.0966053 0.000371393 -0.151702
0.00785 0.0964275 0.0964275 0.000375753 -0.151422
0.007875 0.0962465 0.0962465 0.000380112 -0.151138
0.0079 0.0960622 0.0960622 0.000384466 -0.150849
0.007925 0.0958746 0.0958746 0.000388816 -0.150554
0.00795 0.0956835 0.0956835 0.00039316 -0.150254
0.007975 0.095489 0.095489 0.000397496 -0.149949
0.008 0.0952909 0.0952909 0.000401824 -0.149637
0.008025 0.0950892 0.0950892 0.000406142 -0.149321
0.00805 0.0948838 0.0948838 0.00041045 -0.148998
0.008075 0.0946747 0.0946747 0.000414745 -0.14867
0.0081 0.0944617 0.0944617 0.000419027 -0.148335
0.008125 0.0942448 0.0942448 0.000423295 -0.147995
0.00815 0.0940239 0.0940239 0.000427548 -0.147648
0.008175 0.093799 0.093799 0.000431784 -0.147295
0.0082 0.0935698 0.0935698 0.000436002 -0.146935
0.008225 0.0933365 0.0933365 0.000440202 -0.146568
0.00825 0.0930988 0.0930988 0.000444382 -0.146195
0.008275 0.0928567 0.0928567 0.00044854 -0.145815
0.0083 0.0926101 0.0926101 0.000452676 -0.145428
0.008325 0.0923588 0.0923588 0.000456787 -0.145033
0.00835 0.0921029 0.0921029 0.000460873 -0.144631
0.008375 0.0918423 0.0918423 0.000464933 -0.144222
0.0084 0.0915767 0.0915767 0.000468963 -0.143805
0.008425 0.0913062 0.0913062 0.000472964 -0.14338
0.00845 0.0910307 0.0910307 0.000476932 -0.142948
0.008475 0.09075 0.09075 0.000480866 -0.142507
0.0085 0.090464 0.090464 0.000484765 -0.142058
0.008525 0.0901728 0.0901728 0.000488625 -0.1416
0.00855 0.0898762 0.0898762 0.000492445 -0.141135
0.008575 0.089574 0.089574 0.000496222 -0.14066
0.0086 0.0892663 0.0892663 0.000499954 -0.140177
0.008625 0.0889529 0.0889529 0.000503638 -0.139685
0.00865 0.0886338 0.0886338 0.000507272 -0.139184
0.008675 0.0883089 0.0883089 0.000510852 -0.138673
0.0087 0.087978 0.087978 0.000514376 -0.138154
0.008725 0.0876412 0.0876412 0.00051784 -0.137625
0.00875 0.0872983 0.0872983 0.000521242 -0.137086
0.008775 0.0869492 0.0869492 0.000524577 -0.136538
0.0088 0.0865939 0.0865939 0.000527843 -0.13598
0.008825 0.0862324 0.0862324 0.000531035 -0.135413
0.00885 0.0858645 0.0858645 0.000534151 -0.134835
0.008875 0.0854901 0.0854901 0.000537186 -0.134247
0.0089 0.0851092 0.0851092 0.000540138 -0.133649
0.008925 0.0847218 0.0847218 0.000543001 -0.13304
0.00895 0.0843277 0.0843277 0.000545773 -0.132422
0.008975 0.083927 0.083927 0.000548449 -0.131792
0.009 0.0835194 0.0835194 0.000551027 -0.131152
0.009025 0.083105 0.083105 0.000553502 -0.130502
0.00905 0.0826837 0.0826837 0.00055587 -0.12984
0.009075 0.0822555 0.0822555 0.000558129 -0.129167
0.0091 0.0818202 0.0818202 0.000560275 -0.128484
0.009125 0.0813779 0.0813779 0.000562304 -0.127789
0.00915 0.0809283 0.0809283 0.000564215 -0.127083
0.009175 0.0804716 0.0804716 0.000566003 -0.126366
0.0092 0.0800076 0.0800076 0.000567666 -0.125638
0.009225 0.0795363 0.0795363 0.000569203 -0.124897
0.00925 0.0790575 0.0790575 0.00057061 -0.124146
0.009275 0.0785713 0.0785713 0.000571886 -0.123382
0.0093 0.0780776 0.0780776 0.000573029 -0.122607
0.009325 0.0775762 0.0775762 0.000574038 -0.121819
0.00935 0.0770672 0.0770672 0.000574912 -0.12102
0.009375 0.0765505 0.0765505 0.00057565 -0.120209
0.0094 0.0760259 0.0760259 0.000576253 -0.119385
0.009425 0.0754935 0.0754935 0.000576719 -0.118549
0.00945 0.0749531 0.0749531 0.000577049 -0.1177
0.009475 0.0744047 0.0744047 0.000577244 -0.116839
0.0095 0.0738482 0.0738482 0.000577305 -0.115965
0.009525 0.0732835 0.0732835 0.000577232 -0.115078
0.00955 0.0727105 0.0727105 0.000577028 -0.114178
0.009575 0.0721291 0.0721291 0.000576694 -0.113266
0.0096 0.0715392 0.0715392 0.000576233 -0.112339
0.009625 0.0709408 0.0709408 0.000575646 -0.1114
0.00965 0.0703337 0.0703337 0.000574936 -0.110446
0.009675 0.0697179 0.0697179 0.000574106 -0.109479
0.0097 0.0690931 0.0690931 0.000573159 -0.108498
0.009725 0.0684594 0.0684594 0.000572099 -0.107503
0.00975 0.0678165 0.0678165 0.000570929 -0.106493
0.009775 0.0671644 0.0671644 0.000569651 -0.105469
0.0098 0.066503 0.066503 0.000568271 -0.104431
0.009825 0.0658321 0.0658321 0.000566791 -0.103377
0.00985 0.0651515 0.0651515 0.000565215 -0.102308
0.009875 0.0644613 0.0644613 0.000563548 -0.101224
0.0099 0.0637611 0.0637611 0.000561794 -0.100125
0.009925 0.063051 0.063051 0.000559955 -0.0990099
0.00995 0.0623308 0.0623308 0.000558037 -0.097879
0.009975 0.0616004 0.0616004 0.000556044 -0.0967319
0.01 0.0608596 0.0608596 0.000553978 -0.0955686
0.010025 0.0601083 0.0601083 0.000551845 -0.0943888
0.01005 0.0593464 0.0593464 0.000549648 -0.0931924
0.010075 0.0585738 0.0585738 0.000547391 -0.0919791
0.0101 0.0577903 0.0577903 0.000545078 -0.0907489
0.010125 0.056996 0.056996 0.000542712 -0.0895015
0.01015 0.0561906 0.0561906 0.000540296 -0.0882369
0.010175 0.0553742 0.0553742 0.000537836 -0.0869548
0.0102 0.0545466 0.0545466 0.000535332 -0.0856552
0.010225 0.0537078 0.0537078 0.00053279 -0.0843379
0.01025 0.0528576 0.0528576 0.000530212 -0.083003
0.010275 0.0519962 0.0519962 0.000527602 -0.0816502
0.0103 0.0511234 0.0511234 0.000524961 -0.0802797
0.010325 0.0502393 0.0502393 0.000522294 -0.0788913
0.01035 0.0493437 0.0493437 0.000519602 -0.077485
0.010375 0.0484369 0.0484369 0.000516888 -0.0760609
0.0104 0.0475186 0.0475186 0.000514155 -0.074619
0.010425 0.0465891 0.0465891 0.000511406 -0.0731594
0.01045 0.0456484 0.0456484 0.000508641 -0.0716821
0.010475 0.0446964 0.0446964 0.000505865 -0.0701872
0.0105 0.0437334 0.0437334 0.000503078 -0.068675
0.010525 0.0427593 0.0427593 0.000500283 -0.0671454
0.01055 0.0417744 0.0417744 0.000497482 -0.0655987
0.010575 0.0407787 0.0407787 0.000494676 -0.0640351
0.0106 0.0397723 0.0397723 0.000491867 -0.0624548
0.010625 0.0387553 0.0387553 0.000489058 -0.0608579
0.01065 0.037728 0.037728 0.000486248 -0.0592447
0.010675 0.0366905 0.0366905 0.000483441 -0.0576154
0.0107 0.0356429 0.0356429 0.000480637 -0.0559704
0.010725 0.0345854 0.0345854 0.000477838 -0.0543098
0.01075 0.0335182 0.0335182 0.000475046 -0.0526339
0.010775 0.0324414 0.0324414 0.00047226 -0.050943
0.0108 0.0313552 0.0313552 0.000469484 -0.0492374
0.010825 0.0302598 0.0302598 0.000466717 -0.0475173
0.01085 0.0291553 0.0291553 0.000463961 -0.045783
0.010875 0.028042 0.028042 0.000461218 -0.0440347
0.0109 0.02692 0.02692 0.000458488 -0.0422728
0.010925 0.0257894 0.0257894 0.000455773 -0.0404974
0.01095 0.0246504 0.0246504 0.000453072 -0.0387089
0.010975 0.0235032 0.0235032 0.000450389 -0.0369074
0.011 0.0223479 0.0223479 0.000447723 -0.0350932
0.011025 0.0211846 0.0211846 0.000445075 -0.0332665
0.01105 0.0200134 0.0200134 0.000442448 -0.0314274
0.011075 0.0188344 0.0188344 0.00043984 -0.0295761
0.0111 0.0176479 0.0176479 0.000437255 -0.0277128
0.011125 0.0164537 0.0164537 0.000434692 -0.0258377
0.01115 0.0152521 0.0152521 0.000432152 -0.0239508
0.011175 0.0140431 0.0140431 0.000429638 -0.0220523
0.0112 0.0128267 0.0128267 0.000427149 -0.0201422
0.011225 0.011603 0.011603 0.000424687 -0.0182207
0.01125 0.0103721 0.0103721 0.000422253 -0.0162878
0.011275 0.00913394 0.00913394 0.000419848 -0.0143435
0.0113 0.00788858 0.00788858 0.000417473 -0.0123879
0.011325 0.00663605 0.00663605 0.000415129 -0.0104211
0.01135 0.00537635 0.00537635 0.000412818 -0.00844298
0.011375 0.0041095 0.0041095 0.00041054 -0.00645366
0.0114 0.00283552 0.00283552 0.000408297 -0.00445315
0.011425 0.00155442 0.00155442 0.000406091 -0.00244145
0.01145 0.000266214 0.000266214 0.000403922 -0.000418584
0.011475 -0.00102909 -0.00102909 0.000401791 0.00161542
0.0115 -0.00233147 -0.00233147 0.000399701 0.00366054
0.011525 -0.00364089 -0.00364089 0.000397652 0.00571672
0.01155 -0.00495733 -0.00495733 0.000395647 0.00778392
0.011575 -0.00628072 -0.00628072 0.000393685 0.00986205
0.0116 -0.00761102 -0.00761102 0.00039177 0.011951
0.011625 -0.00894816 -0.00894816 0.000389902 0.0140507
0.01165 -0.010292 -0.010292 0.000388083 0.016161
0.011675 -0.0116426 -0.0116426 0.000386315 0.0182818
0.0117 -0.0129997 -0.0129997 0.000384598 0.0204128
0.011725 -0.0143632 -0.0143632 0.000382936 0.022554
0.01175 -0.0157329 -0.0157329 0.000381329 0.0247049
0.011775 -0.0171088 -0.0171088 0.000379779 0.0268654
0.0118 -0.0184905 -0.0184905 0.000378288 0.0290351
0.011825 -0.0198778 -0.0198778 0.000376857 0.0312137
0.01185 -0.0212707 -0.0212707 0.000375488 0.0334009
0.011875 -0.0226687 -0.0226687 0.000374182 0.0355962
0.0119 -0.0240716 -0.0240716 0.000372942 0.0377992
0.011925 -0.0254791 -0.0254791 0.000371769 0.0400094
0.01195 -0.0268909 -0.0268909 0.000370665 0.0422264
0.011975 -0.0283066 -0.0283066 0.00036963 0.0444496
0.012 -0.029726 -0.029726 0.000368666 0.0466784
0.012025 -0.0311485 -0.0311485 0.000367775 0.0489123
0.01205 -0.0325739 -0.0325739 0.000366958 0.0511505
0.012075 -0.0340016 -0.0340016 0.000366217 0.0533925
0.0121 -0.0354313 -0.0354313 0.000365552 0.0556376
0.012125 -0.0368625 -0.0368625 0.000364964 0.0578851
0.01215 -0.0382948 -0.0382948 0.000364454 0.0601343
0.012175 -0.0397276 -0.0397276 0.000364024 0.0623843
0.0122 -0.0411606 -0.0411606 0.000363673 0.0646345
0.012225 -0.0425932 -0.0425932 0.000363403 0.0668841
0.01225 -0.0440248 -0.0440248 0.000363213 0.0691324
0.012275 -0.0454551 -0.0454551 0.000363104 0.0713784
0.0123 -0.0468835 -0.0468835 0.000363075 0.0736214
0.012325 -0.0483094 -0.0483094 0.000363128 0.0758606
0.01235 -0.0497324 -0.0497324 0.000363261 0.0780951
0.012375 -0.0511519 -0.0511519 0.000363474 0.0803243
0.0124 -0.0525675 -0.0525675 0.000363767 0.0825472
0.012425 -0.0539785 -0.0539785 0.000364138 0.084763
0.01245 -0.0553846 -0.0553846 0.000364587 0.086971
0.012475 -0.0567851 -0.0567851 0.000365112 0.0891703
0.0125 -0.0581796 -0.0581796 0.000365712 0.0913602
0.012525 -0.0595676 -0.0595676 0.000366386 0.0935398
0.01255 -0.0609487 -0.0609487 0.000367132 0.0957085
0.012575 -0.0623222 -0.0623222 0.000367947 0.0978654
0.0126 -0.0636878 -0.0636878 0.00036883 0.10001
0.012625 -0.065045 -0.065045 0.000369779 0.102141
0.01265 -0.0663933 -0.0663933 0.000370791 0.104258
0.012675 -0.0677324 -0.0677324 0.000371863 0.106361
0.0127 -0.0690617 -0.0690617 0.000372993 0.108449
0.012725 -0.0703809 -0.0703809 0.000374178 0.11052
0.01275 -0.0716897 -0.0716897 0.000375415 0.112576
0.012775 -0.0729875 -0.0729875 0.000376701 0.114614
0.0128 -0.074274 -0.074274 0.000378032 0.116634
0.012825 -0.0755489 -0.0755489 0.000379405 0.118636
0.01285 -0.0768118 -0.0768118 0.000380817 0.120619
0.012875 -0.0780624 -0.0780624 0.000382265 0.122583
0.0129 -0.0793004 -0.0793004 0.000383745 0.124527
0.012925 -0.0805254 -0.0805254 0.000385252 0.126451
0.01295 -0.0817373 -0.0817373 0.000386785 0.128354
0.012975 -0.0829357 -0.0829357 0.000388339 0.130236
0.013 -0.0841203 -0.0841203 0.00038991 0.132096
0.013025 -0.0852909 -0.0852909 0.000391494 0.133934
0.01305 -0.0864472 -0.0864472 0.000393089 0.13575
0.013075 -0.0875892 -0.0875892 0.000394691 0.137543
0.0131 -0.0887164 -0.0887164 0.000396295 0.139313
0.013125 -0.0898288 -0.0898288 0.000397898 0.14106
0.01315 -0.0909262 -0.0909262 0.000399497 0.142783
0.013175 -0.0920083 -0.0920083 0.000401089 0.144483
0.0132 -0.0930751 -0.0930751 0.000402669 0.146158
0.013225 -0.0941264 -0.0941264 0.000404235 0.147809
0.01325 -0.095162 -0.095162 0.000405783 0.149435
0.013275 -0.0961818 -0.0961818 0.00040731 0.151037
0.0133 -0.0971858 -0.0971858 0.000408812 0.152613
0.013325 -0.0981737 -0.0981737 0.000410288 0.154164
0.01335 -0.0991455 -0.0991455 0.000411733 0.15569
0.013375 -0.100101 -0.100101 0.000413145 0.157191
0.0134 -0.10104 -0.10104 0.000414521 0.158666
0.013425 -0.101963 -0.101963 0.000415858 0.160115
0.01345 -0.10287 -0.10287 0.000417154 0.161539
0.013475 -0.10376 -0.10376 0.000418407 0.162936
0.0135 -0.104633 -0.104633 0.000419613 0.164308
0.013525 -0.10549 -0.10549 0.000420771 0.165653
0.01355 -0.10633 -0.10633 0.000421878 0.166973
0.013575 -0.107154 -0.107154 0.000422932 0.168266
0.0136 -0.10796 -0.10796 0.000423931 0.169532
0.013625 -0.10875 -0.10875 0.000424873 0.170773
0.01365 -0.109523 -0.109523 0.000425756 0.171987
0.013675 -0.110279 -0.110279 0.000426579 0.173174
0.0137 -0.111018 -0.111018 0.000427339 0.174335
0.013725 -0.111741 -0.111741 0.000428035 0.175469
0.01375 -0.112446 -0.112446 0.000428666 0.176577
0.013775 -0.113134 -0.113134 0.000429229 0.177658
0.0138 -0.113806 -0.113806 0.000429723 0.178712
0.013825 -0.11446 -0.11446 0.000430148 0.179739
0.01385 -0.115097 -0.115097 0.0004305 0.180739
0.013875 -0.115717 -0.115717 0.00043078 0.181713
0.0139 -0.116319 -0.116319 0.000430986 0.182659
0.013925 -0.116905 -0.116905 0.000431117 0.183579
0.01395 -0.117473 -0.117473 0.000431171 0.184471
0.013975 -0.118024 -0.118024 0.000431148 0.185336
0.014 -0.118557 -0.118557 0.000431046 0.186173
0.014025 -0.119073 -0.119073 0.000430864 0.186983
0.01405 -0.119572 -0.119572 0.000430602 0.187766
0.014075 -0.120052 -0.120052 0.000430257 0.188521
0.0141 -0.120516 -0.120516 0.00042983 0.189249
0.014125 -0.120961 -0.120961 0.00042932 0.189948
0.01415 -0.121389 -0.121389 0.000428724 0.19062
0.014175 -0.121799 -0.121799 0.000428043 0.191264
0.0142 -0.122191 -0.122191 0.000427276 0.191879
0.014225 -0.122564 -0.122564 0.000426421 0.192466
0.01425 -0.12292 -0.12292 0.000425477 0.193025
0.014275 -0.123258 -0.123258 0.000424445 0.193555
0.0143 -0.123577 -0.123577 0.000423322 0.194056
0.014325 -0.123878 -0.123878 0.000422108 0.194529
0.01435 -0.12416 -0.12416 0.000420802 0.194972
0.014375 -0.124424 -0.124424 0.000419403 0.195387
0.0144 -0.124669 -0.124669 0.000417911 0.195772
0.014425 -0.124896 -0.124896 0.000416324 0.196127
0.01445 -0.125104 -0.125104 0.000414642 0.196453
0.014475 -0.125292 -0.125292 0.000412865 0.19675
0.0145 -0.125462 -0.125462 0.00041099 0.197016
0.014525 -0.125612 -0.125612 0.000409018 0.197252
0.01455 -0.125744 -0.125744 0.000406947 0.197459
0.014575 -0.125856 -0.125856 0.000404777 0.197635
0.0146 -0.125949 -0.125949 0.000402508 0.197781
0.014625 -0.126022 -0.126022 0.000400138 0.197896
0.01465 -0.126076 -0.126076 0.000397667 0.197981
0.014675 -0.126111 -0.126111 0.000395095 0.198035
0.0147 -0.126126 -0.126126 0.000392421 0.198059
0.014725 -0.126121 -0.126121 0.000389644 0.198052
0.01475 -0.126097 -0.126097 0.000386764 0.198014
0.014775 -0.126054 -0.126054 0.000383781 0.197945
0.0148 -0.12599 -0.12599 0.000380694 0.197846
0.014825 -0.125908 -0.125908 0.000377504 0.197716
0.01485 -0.125805 -0.125805 0.000374209 0.197555
0.014875 -0.125683 -0.125683 0.00037081 0.197363
0.0149 -0.125542 -0.125542 0.000367307 0.197141
0.014925 -0.125381 -0.125381 0.0003637 0.196889
0.01495 -0.125201 -0.125201 0.00035999 0.196606
0.014975 -0.125002 -0.125002 0.000356175 0.196293
0.015 -0.124783 -0.124783 0.000352258 0.19595
0.015025 -0.124546 -0.124546 0.000348238 0.195577
0.01505 -0.12429 -0.12429 0.000344115 0.195175
0.015075 -0.124015 -0.124015 0.000339892 0.194743