# Time Dx Dy Dz magD
5e-05 0 -6.90755e-14 -9.77512e-16 6.90824e-14
5e-05 0 -6.90755e-14 -9.77512e-16 6.90824e-14
0.0001 0 7.24498e-14 -6.71154e-15 7.276e-14
0.0001 0 7.24498e-14 -6.71154e-15 7.276e-14
0.00015 0 1.00949e-12 -5.39335e-14 1.01093e-12
0.00015 0 1.00949e-12 -5.39335e-14 1.01093e-12
0.0002 0 5.0032e-12 -3.27547e-13 5.01391e-12
0.0002 0 5.0032e-12 -3.27547e-13 5.01391e-12
0.00025 0 2.29974e-11 -1.43217e-12 2.30419e-11
0.00025 0 2.29974e-11 -1.43217e-12 2.30419e-11
0.0003 0 7.69753e-11 -4.96974e-12 7.71355e-11
0.0003 0 7.69753e-11 -4.96974e-12 7.71355e-11
0.00035 0 2.13085e-10 -1.43672e-11 2.13569e-10
0.00035 0 2.13085e-10 -1.43672e-11 2.13569e-10
0.0004 0 5.04455e-10 -3.5573e-11 5.05707e-10
0.0004 0 5.04455e-10 -3.5573e-11 5.05707e-10
0.00045 0 1.04597e-09 -7.6994e-11 1.0488e-09
0.00045 0 1.04597e-09 -7.6994e-11 1.0488e-09
0.0005 0 1.93156e-09 -1.48332e-10 1.93725e-09
0.0005 0 1.93156e-09 -1.48332e-10 1.93725e-09
0.00055 0 3.22082e-09 -2.58986e-10 3.23122e-09
0.00055 0 3.22082e-09 -2.58986e-10 3.23122e-09
0.0006 0 4.91238e-09 -4.18119e-10 4.93015e-09
0.0006 0 4.91238e-09 -4.18119e-10 4.93015e-09
0.00065 0 6.94067e-09 -6.39644e-10 6.97009e-09
0.00065 0 6.94067e-09 -6.39644e-10 6.97009e-09
0.0007 0 9.20975e-09 -9.55358e-10 9.25917e-09
0.0007 0 9.20975e-09 -9.55358e-10 9.25917e-09
0.00075 0 1.16348e-08 -1.43824e-09 1.17234e-08
0.00075 0 1.16348e-08 -1.43824e-09 1.17234e-08
0.0008 0 1.42282e-08 -2.23723e-09 1.4403e-08
0.0008 0 1.42282e-08 -2.23723e-09 1.4403e-08
0.00085 0 1.71126e-08 -3.62447e-09 1.74922e-08
0.00085 0 1.71126e-08 -3.62447e-09 1.74922e-08
0.0009 0 2.05177e-08 -6.05719e-09 2.13931e-08
0.0009 0 2.05177e-08 -6.05719e-09 2.13931e-08
0.00095 0 2.47236e-08 -1.02574e-08 2.67669e-08
0.00095 0 2.47236e-08 -1.02574e-08 2.67669e-08
0.001 0 2.99978e-08 -1.73119e-08 3.46348e-08
0.001 0 2.99978e-08 -1.73119e-08 3.46348e-08
0.00105 0 3.65362e-08 -2.87913e-08 4.6517e-08
0.00105 0 3.65362e-08 -2.87913e-08 4.6517e-08
0.0011 0 4.4462e-08 -4.68783e-08 6.46099e-08
0.0011 0 4.4462e-08 -4.68783e-08 6.46099e-08
0.00115 0 5.38449e-08 -7.44903e-08 9.19134e-08
0.00115 0 5.38449e-08 -7.44903e-08 9.19134e-08
0.0012 0 6.47655e-08 -1.15373e-07 1.32308e-07
0.0012 0 6.47655e-08 -1.15373e-07 1.32308e-07
0.00125 0 7.73557e-08 -1.74142e-07 1.9055e-07
0.00125 0 7.73557e-08 -1.74142e-07 1.9055e-07
0.0013 0 9.1834e-08 -2.56257e-07 2.72215e-07
0.0013 0 9.1834e-08 -2.56257e-07 2.72215e-07
0.00135 0 1.08488e-07 -3.67911e-07 3.83573e-07
0.00135 0 1.08488e-07 -3.67911e-07 3.83573e-07
0.0014 0 1.27649e-07 -5.15844e-07 5.31403e-07
0.0014 0 1.27649e-07 -5.15844e-07 5.31403e-07
0.00145 0 1.49631e-07 -7.07088e-07 7.22746e-07
0.00145 0 1.49631e-07 -7.07088e-07 7.22746e-07
0.0015 0 1.74709e-07 -9.48663e-07 9.64617e-07
0.0015 0 1.74709e-07 -9.48663e-07 9.64617e-07
0.00155 0 2.03087e-07 -1.24726e-06 1.26369e-06
0.00155 0 2.03087e-07 -1.24726e-06 1.26369e-06
0.0016 0 2.34909e-07 -1.60893e-06 1.62599e-06
0.0016 0 2.34909e-07 -1.60893e-06 1.62599e-06
0.00165 0 2.70281e-07 -2.03882e-06 2.05665e-06
0.00165 0 2.70281e-07 -2.03882e-06 2.05665e-06
0.0017 0 3.09301e-07 -2.54094e-06 2.55969e-06
0.0017 0 3.09301e-07 -2.54094e-06 2.55969e-06
0.00175 0 3.52087e-07 -3.11808e-06 3.1379e-06
0.00175 0 3.52087e-07 -3.11808e-06 3.1379e-06
0.0018 0 3.98803e-07 -3.77175e-06 3.79277e-06
0.0018 0 3.98803e-07 -3.77175e-06 3.79277e-06
0.00185 0 4.49648e-07 -4.50218e-06 4.52458e-06
0.00185 0 4.49648e-07 -4.50218e-06 4.52458e-06
0.0019 0 5.04904e-07 -5.30848e-06 5.33243e-06
0.0019 0 5.04904e-07 -5.30848e-06 5.33243e-06
0.00195 0 5.64877e-07 -6.18875e-06 6.21448e-06
0.00195 0 5.64877e-07 -6.18875e-06 6.21448e-06
0.002 0 6.2992e-07 -7.14031e-06 7.16804e-06
0.002 0 6.2992e-07 -7.14031e-06 7.16804e-06
0.00205 0 7.00452e-07 -8.15985e-06 8.18986e-06
0.00205 0 7.00452e-07 -8.15985e-06 8.18986e-06
0.0021 0 7.76875e-07 -9.24364e-06 9.27623e-06
0.0021 0 7.76875e-07 -9.24364e-06 9.27623e-06
0.00215 0 8.59696e-07 -1.03877e-05 1.04232e-05
0.00215 0 8.59696e-07 -1.03877e-05 1.04232e-05
0.0022 0 9.49409e-07 -1.1588e-05 1.16268e-05
0.0022 0 9.49409e-07 -1.1588e-05 1.16268e-05
0.00225 0 1.04661e-06 -1.28403e-05 1.28829e-05
0.00225 0 1.04661e-06 -1.28403e-05 1.28829e-05
0.0023 0 1.15195e-06 -1.41408e-05 1.41877e-05
0.0023 0 1.15195e-06 -1.41408e-05 1.41877e-05
0.00235 0 1.26606e-06 -1.54856e-05 1.55372e-05
0.00235 0 1.26606e-06 -1.54856e-05 1.55372e-05
0.0024 0 1.38967e-06 -1.68709e-05 1.6928e-05
0.0024 0 1.38967e-06 -1.68709e-05 1.6928e-05
0.00245 0 1.52354e-06 -1.82932e-05 1.83565e-05
0.00245 0 1.52354e-06 -1.82932e-05 1.83565e-05
0.0025 0 1.66848e-06 -1.97493e-05 1.98196e-05
0.0025 0 1.66848e-06 -1.97493e-05 1.98196e-05
0.00255 0 1.82531e-06 -2.12359e-05 2.13142e-05
0.00255 0 1.82531e-06 -2.12359e-05 2.13142e-05
0.0026 0 1.99493e-06 -2.27502e-05 2.28375e-05
0.0026 0 1.99493e-06 -2.27502e-05 2.28375e-05
0.00265 0 2.17823e-06 -2.42892e-05 2.43866e-05
0.00265 0 2.17823e-06 -2.42892e-05 2.43866e-05
0.0027 0 2.37614e-06 -2.58503e-05 2.59593e-05
0.0027 0 2.37614e-06 -2.58503e-05 2.59593e-05
0.00275 0 2.58964e-06 -2.74309e-05 2.75529e-05
0.00275 0 2.58964e-06 -2.74309e-05 2.75529e-05
0.0028 0 2.81969e-06 -2.90287e-05 2.91654e-05
0.0028 0 2.81969e-06 -2.90287e-05 2.91654e-05
0.00285 0 3.0673e-06 -3.06413e-05 3.07945e-05
0.00285 0 3.0673e-06 -3.06413e-05 3.07945e-05
0.0029 0 3.33347e-06 -3.22665e-05 3.24383e-05
0.0029 0 3.33347e-06 -3.22665e-05 3.24383e-05
0.00295 0 3.61919e-06 -3.39023e-05 3.40949e-05
0.00295 0 3.61919e-06 -3.39023e-05 3.40949e-05
0.003 0 3.92545e-06 -3.55465e-05 3.57626e-05
0.003 0 3.92545e-06 -3.55465e-05 3.57626e-05
0.00305 0 4.25323e-06 -3.71974e-05 3.74398e-05
0.00305 0 4.25323e-06 -3.71974e-05 3.74398e-05
0.0031 0 4.60345e-06 -3.88531e-05 3.91249e-05
0.0031 0 4.60345e-06 -3.88531e-05 3.91249e-05
0.00315 0 4.97703e-06 -4.05119e-05 4.08165e-05
0.00315 0 4.97703e-06 -4.05119e-05 4.08165e-05
0.0032 0 5.37487e-06 -4.21722e-05 4.25134e-05
0.0032 0 5.37487e-06 -4.21722e-05 4.25134e-05
0.00325 0 5.79781e-06 -4.38325e-05 4.42143e-05
0.00325 0 5.79781e-06 -4.38325e-05 4.42143e-05
0.0033 0 6.24666e-06 -4.54912e-05 4.59181e-05
0.0033 0 6.24666e-06 -4.54912e-05 4.59181e-05
0.00335 0 6.72227e-06 -4.71471e-05 4.76239e-05
0.00335 0 6.72227e-06 -4.71471e-05 4.76239e-05
0.0034 0 7.22542e-06 -4.87988e-05 4.93308e-05
0.0034 0 7.22542e-06 -4.87988e-05 4.93308e-05
0.00345 0 7.75694e-06 -5.0445e-05 5.10379e-05
0.00345 0 7.75694e-06 -5.0445e-05 5.10379e-05
0.0035 0 8.31773e-06 -5.20846e-05 5.27446e-05
0.0035 0 8.31773e-06 -5.20846e-05 5.27446e-05
0.00355 0 8.90882e-06 -5.37162e-05 5.445e-05
0.00355 0 8.90882e-06 -5.37162e-05 5.445e-05
0.0036 0 9.53145e-06 -5.53388e-05 5.61536e-05
0.0036 0 9.53145e-06 -5.53388e-05 5.61536e-05
0.00365 0 1.01871e-05 -5.6951e-05 5.78549e-05
0.00365 0 1.01871e-05 -5.6951e-05 5.78549e-05
0.0037 0 1.08776e-05 -5.85514e-05 5.95533e-05
0.0037 0 1.08776e-05 -5.85514e-05 5.95533e-05
0.00375 0 1.16049e-05 -6.01387e-05 6.12482e-05
0.00375 0 1.16049e-05 -6.01387e-05 6.12482e-05
0.0038 0 1.23712e-05 -6.17111e-05 6.2939e-05
0.0038 0 1.23712e-05 -6.17111e-05 6.2939e-05
0.00385 0 1.31789e-05 -6.32667e-05 6.46247e-05
0.00385 0 1.31789e-05 -6.32667e-05 6.46247e-05
0.0039 0 1.40303e-05 -6.48029e-05 6.63043e-05
0.0039 0 1.40303e-05 -6.48029e-05 6.63043e-05
0.00395 0 1.4928e-05 -6.6317e-05 6.79764e-05
0.00395 0 1.4928e-05 -6.6317e-05 6.79764e-05
0.004 0 1.58746e-05 -6.78053e-05 6.96388e-05
0.004 0 1.58746e-05 -6.78053e-05 6.96388e-05
0.00405 0 1.6873e-05 -6.92637e-05 7.12892e-05
0.00405 0 1.6873e-05 -6.92637e-05 7.12892e-05
0.0041 0 1.79261e-05 -7.06869e-05 7.29245e-05
0.0041 0 1.79261e-05 -7.06869e-05 7.29245e-05
0.00415 0 1.90367e-05 -7.20688e-05 7.45406e-05
0.00415 0 1.90367e-05 -7.20688e-05 7.45406e-05
0.0042 0 2.02077e-05 -7.3402e-05 7.61328e-05
0.0042 0 2.02077e-05 -7.3402e-05 7.61328e-05
0.00425 0 2.14415e-05 -7.46782e-05 7.76954e-05
0.00425 0 2.14415e-05 -7.46782e-05 7.76954e-05
0.0043 0 2.27401e-05 -7.58878e-05 7.92216e-05
0.0043 0 2.27401e-05 -7.58878e-05 7.92216e-05
0.00435 0 2.41047e-05 -7.70202e-05 8.07041e-05
0.00435 0 2.41047e-05 -7.70202e-05 8.07041e-05
0.0044 0 2.55362e-05 -7.80643e-05 8.21348e-05
0.0044 0 2.55362e-05 -7.80643e-05 8.21348e-05
0.00445 0 2.70344e-05 -7.90082e-05 8.35054e-05
0.00445 0 2.70344e-05 -7.90082e-05 8.35054e-05
0.0045 0 2.85988e-05 -7.98401e-05 8.48076e-05
0.0045 0 2.85988e-05 -7.98401e-05 8.48076e-05
0.00455 0 3.02278e-05 -8.05485e-05 8.60336e-05
0.00455 0 3.02278e-05 -8.05485e-05 8.60336e-05
0.0046 0 3.19192e-05 -8.11227e-05 8.71764e-05
0.0046 0 3.19192e-05 -8.11227e-05 8.71764e-05
0.00465 0 3.36704e-05 -8.15531e-05 8.82304e-05
0.00465 0 3.36704e-05 -8.15531e-05 8.82304e-05
0.0047 0 3.54777e-05 -8.18316e-05 8.91912e-05
0.0047 0 3.54777e-05 -8.18316e-05 8.91912e-05
0.00475 0 3.7337e-05 -8.19516e-05 9.00562e-05
0.00475 0 3.7337e-05 -8.19516e-05 9.00562e-05
0.0048 0 3.92437e-05 -8.19087e-05 9.08246e-05
0.0048 0 3.92437e-05 -8.19087e-05 9.08246e-05
0.00485 0 4.11927e-05 -8.17002e-05 9.14973e-05
0.00485 0 4.11927e-05 -8.17002e-05 9.14973e-05
0.0049 0 4.31786e-05 -8.13254e-05 9.20773e-05
0.0049 0 4.31786e-05 -8.13254e-05 9.20773e-05
0.00495 0 4.51961e-05 -8.07854e-05 9.25687e-05
0.00495 0 4.51961e-05 -8.07854e-05 9.25687e-05
0.005 0 4.72397e-05 -8.00828e-05 9.29777e-05
0.005 0 4.72397e-05 -8.00828e-05 9.29777e-05
0.00505 0 4.93044e-05 -7.92218e-05 9.33114e-05
0.00505 0 4.93044e-05 -7.92218e-05 9.33114e-05
0.0051 0 5.13854e-05 -7.82075e-05 9.35782e-05
0.0051 0 5.13854e-05 -7.82075e-05 9.35782e-05
0.00515 0 5.34788e-05 -7.70461e-05 9.37875e-05
0.00515 0 5.34788e-05 -7.70461e-05 9.37875e-05
0.0052 0 5.55811e-05 -7.57446e-05 9.39494e-05
0.0052 0 5.55811e-05 -7.57446e-05 9.39494e-05
0.00525 0 5.76897e-05 -7.43101e-05 9.40749e-05
0.00525 0 5.76897e-05 -7.43101e-05 9.40749e-05
0.0053 0 5.98029e-05 -7.27502e-05 9.41753e-05
0.0053 0 5.98029e-05 -7.27502e-05 9.41753e-05
0.00535 0 6.19198e-05 -7.10727e-05 9.42624e-05
0.00535 0 6.19198e-05 -7.10727e-05 9.42624e-05
0.0054 0 6.40406e-05 -6.92851e-05 9.43484e-05
0.0054 0 6.40406e-05 -6.92851e-05 9.43484e-05
0.00545 0 6.61662e-05 -6.73947e-05 9.44458e-05
0.00545 0 6.61662e-05 -6.73947e-05 9.44458e-05
0.0055 0 6.82981e-05 -6.54087e-05 9.4567e-05
0.0055 0 6.82981e-05 -6.54087e-05 9.4567e-05
0.00555 0 7.04387e-05 -6.33335e-05 9.47246e-05
0.00555 0 7.04387e-05 -6.33335e-05 9.47246e-05
0.0056 0 7.25908e-05 -6.11754e-05 9.49308e-05
0.0056 0 7.25908e-05 -6.11754e-05 9.49308e-05
0.00565 0 7.47575e-05 -5.89399e-05 9.51977e-05
0.00565 0 7.47575e-05 -5.89399e-05 9.51977e-05
0.0057 0 7.69421e-05 -5.6632e-05 9.55367e-05
0.0057 0 7.69421e-05 -5.6632e-05 9.55367e-05
0.00575 0 7.91476e-05 -5.42559e-05 9.59586e-05
0.00575 0 7.91476e-05 -5.42559e-05 9.59586e-05
0.0058 0 8.1377e-05 -5.18154e-05 9.6473e-05
0.0058 0 8.1377e-05 -5.18154e-05 9.6473e-05
0.00585 0 8.36324e-05 -4.93135e-05 9.70886e-05
0.00585 0 8.36324e-05 -4.93135e-05 9.70886e-05
0.0059 0 8.59156e-05 -4.67527e-05 9.78126e-05
0.0059 0 8.59156e-05 -4.67527e-05 9.78126e-05
0.00595 0 8.8227e-05 -4.4135e-05 9.86504e-05
0.00595 0 8.8227e-05 -4.4135e-05 9.86504e-05
0.006 0 9.05662e-05 -4.14618e-05 9.96058e-05
0.006 0 9.05662e-05 -4.14618e-05 9.96058e-05
0.00605 0 9.29315e-05 -3.87341e-05 0.000100681
0.00605 0 9.29315e-05 -3.87341e-05 0.000100681
0.0061 0 9.532e-05 -3.59527e-05 0.000101875
0.0061 0 9.532e-05 -3.59527e-05 0.000101875
0.00615 0 9.77272e-05 -3.31179e-05 0.000103186
0.00615 0 9.77272e-05 -3.31179e-05 0.000103186
0.0062 0 0.000100147 -3.02303e-05 0.00010461
0.0062 0 0.000100147 -3.02303e-05 0.00010461
0.00625 0 0.000102573 -2.72899e-05 0.000106141
0.00625 0 0.000102573 -2.72899e-05 0.000106141
0.0063 0 0.000104996 -2.42974e-05 0.00010777
0.0063 0 0.000104996 -2.42974e-05 0.00010777
0.00635 0 0.000107406 -2.12531e-05 0.000109488
0.00635 0 0.000107406 -2.12531e-05 0.000109488
0.0064 0 0.000109792 -1.81579e-05 0.000111283
0.0064 0 0.000109792 -1.81579e-05 0.000111283
0.00645 0 0.000112142 -1.50129e-05 0.000113143
0.00645 0 0.000112142 -1.50129e-05 0.000113143
0.0065 0 0.000114444 -1.18198e-05 0.000115053
0.0065 0 0.000114444 -1.18198e-05 0.000115053
0.00655 0 0.000116684 -8.58057e-06 0.000116999
0.00655 0 0.000116684 -8.58057e-06 0.000116999
0.0066 0 0.000118849 -5.29784e-06 0.000118967
0.0066 0 0.000118849 -5.29784e-06 0.000118967
0.00665 0 0.000120923 -1.97476e-06 0.000120939
0.00665 0 0.000120923 -1.97476e-06 0.000120939
0.0067 0 0.000122894 1.38492e-06 0.000122902
0.0067 0 0.000122894 1.38492e-06 0.000122902
0.00675 0 0.000124747 4.77687e-06 0.000124838
0.00675 0 0.000124747 4.77687e-06 0.000124838
0.0068 0 0.000126469 8.1962e-06 0.000126734
0.0068 0 0.000126469 8.1962e-06 0.000126734
0.00685 0 0.000128047 1.16374e-05 0.000128575
0.00685 0 0.000128047 1.16374e-05 0.000128575
0.0069 0 0.000129469 1.50947e-05 0.000130346
0.0069 0 0.000129469 1.50947e-05 0.000130346
0.00695 0 0.000130723 1.85616e-05 0.000132034
0.00695 0 0.000130723 1.85616e-05 0.000132034
0.007 0 0.000131798 2.20313e-05 0.000133627
0.007 0 0.000131798 2.20313e-05 0.000133627
0.00705 0 0.000132682 2.54966e-05 0.00013511
0.00705 0 0.000132682 2.54966e-05 0.00013511
0.0071 0 0.000133367 2.89502e-05 0.000136473
0.0071 0 0.000133367 2.89502e-05 0.000136473
0.00715 0 0.000133843 3.23839e-05 0.000137705
0.00715 0 0.000133843 3.23839e-05 0.000137705
0.0072 0 0.000134092 3.57895e-05 0.000138786
0.0072 0 0.000134092 3.57895e-05 0.000138786
0.00725 0 0.000134111 3.91576e-05 0.000139711
0.00725 0 0.000134111 3.91576e-05 0.000139711
0.0073 0 0.000133888 4.24784e-05 0.000140465
0.0073 0 0.000133888 4.24784e-05 0.000140465
0.00735 0 0.000133411 4.57405e-05 0.000141034
0.00735 0 0.000133411 4.57405e-05 0.000141034
0.0074 0 0.000132681 4.89322e-05 0.000141417
0.0074 0 0.000132681 4.89322e-05 0.000141417
0.00745 0 0.000131692 5.20411e-05 0.000141602
0.00745 0 0.000131692 5.20411e-05 0.000141602
0.0075 0 0.000130446 5.50548e-05 0.000141588
0.0075 0 0.000130446 5.50548e-05 0.000141588
0.00755 0 0.000128948 5.79613e-05 0.000141376
0.00755 0 0.000128948 5.79613e-05 0.000141376
0.0076 0 0.000127204 6.07497e-05 0.000140966
0.0076 0 0.000127204 6.07497e-05 0.000140966
0.00765 0 0.000125222 6.34096e-05 0.000140362
0.00765 0 0.000125222 6.34096e-05 0.000140362
0.0077 0 0.000123012 6.59322e-05 0.000139567
0.0077 0 0.000123012 6.59322e-05 0.000139567
0.00775 0 0.000120584 6.83098e-05 0.000138589
0.00775 0 0.000120584 6.83098e-05 0.000138589
0.0078 0 0.000117953 7.05354e-05 0.000137434
0.0078 0 0.000117953 7.05354e-05 0.000137434
0.00785 0 0.000115129 7.26032e-05 0.00013611
0.00785 0 0.000115129 7.26032e-05 0.00013611
0.0079 0 0.000112129 7.45086e-05 0.000134627
0.0079 0 0.000112129 7.45086e-05 0.000134627
0.00795 0 0.000108966 7.62478e-05 0.000132994
0.00795 0 0.000108966 7.62478e-05 0.000132994
0.008 0 0.000105656 7.78184e-05 0.000131221
0.008 0 0.000105656 7.78184e-05 0.000131221
0.00805 0 0.000102216 7.92192e-05 0.00012932
0.00805 0 0.000102216 7.92192e-05 0.00012932
0.0081 0 9.8659e-05 8.04499e-05 0.000127302
0.0081 0 9.8659e-05 8.04499e-05 0.000127302
0.00815 0 9.50025e-05 8.15116e-05 0.000125178
0.00815 0 9.50025e-05 8.15116e-05 0.000125178
0.0082 0 9.12613e-05 8.24062e-05 0.000122961
0.0082 0 9.12613e-05 8.24062e-05 0.000122961
0.00825 0 8.74499e-05 8.31365e-05 0.000120661
0.00825 0 8.74499e-05 8.31365e-05 0.000120661
0.0083 0 8.35823e-05 8.37063e-05 0.000118291
0.0083 0 8.35823e-05 8.37063e-05 0.000118291
0.00835 0 7.96715e-05 8.41198e-05 0.000115861
0.00835 0 7.96715e-05 8.41198e-05 0.000115861
0.0084 0 7.57295e-05 8.43822e-05 0.000113381
0.0084 0 7.57295e-05 8.43822e-05 0.000113381
0.00845 0 7.17673e-05 8.44988e-05 0.000110863
0.00845 0 7.17673e-05 8.44988e-05 0.000110863
0.0085 0 6.77948e-05 8.44754e-05 0.000108315
0.0085 0 6.77948e-05 8.44754e-05 0.000108315
0.00855 0 6.38206e-05 8.43178e-05 0.000105748
0.00855 0 6.38206e-05 8.43178e-05 0.000105748
0.0086 0 5.98526e-05 8.40322e-05 0.000103168
0.0086 0 5.98526e-05 8.40322e-05 0.000103168
0.00865 0 5.58973e-05 8.36244e-05 0.000100586
0.00865 0 5.58973e-05 8.36244e-05 0.000100586
0.0087 0 5.19605e-05 8.31003e-05 9.80079e-05
0.0087 0 5.19605e-05 8.31003e-05 9.80079e-05
0.00875 0 4.80471e-05 8.24656e-05 9.54416e-05
0.00875 0 4.80471e-05 8.24656e-05 9.54416e-05
0.0088 0 4.41617e-05 8.17257e-05 9.28943e-05
0.0088 0 4.41617e-05 8.17257e-05 9.28943e-05
0.00885 0 4.0308e-05 8.08856e-05 9.03726e-05
0.00885 0 4.0308e-05 8.08856e-05 9.03726e-05
0.0089 0 3.64895e-05 7.995e-05 8.78834e-05
0.0089 0 3.64895e-05 7.995e-05 8.78834e-05
0.00895 0 3.27095e-05 7.89235e-05 8.54332e-05
0.00895 0 3.27095e-05 7.89235e-05 8.54332e-05
0.009 0 2.89716e-05 7.781e-05 8.30286e-05
0.009 0 2.89716e-05 7.781e-05 8.30286e-05
0.00905 0 2.52787e-05 7.66133e-05 8.0676e-05
0.00905 0 2.52787e-05 7.66133e-05 8.0676e-05
0.0091 0 2.16352e-05 7.5337e-05 7.8382e-05
0.0091 0 2.16352e-05 7.5337e-05 7.8382e-05
0.00915 0 1.8045e-05 7.39842e-05 7.6153e-05
0.00915 0 1.8045e-05 7.39842e-05 7.6153e-05
0.0092 0 1.4511e-05 7.25579e-05 7.39947e-05
0.0092 0 1.4511e-05 7.25579e-05 7.39947e-05
0.00925 0 1.10408e-05 7.10614e-05 7.1914e-05
0.00925 0 1.10408e-05 7.10614e-05 7.1914e-05
0.0093 0 7.63877e-06 6.94979e-05 6.99164e-05
0.0093 0 7.63877e-06 6.94979e-05 6.99164e-05
0.00935 0 4.31028e-06 6.78702e-05 6.80069e-05
0.00935 0 4.31028e-06 6.78702e-05 6.80069e-05
0.0094 0 1.06069e-06 6.61818e-05 6.61903e-05
0.0094 0 1.06069e-06 6.61818e-05 6.61903e-05
0.00945 0 -2.10375e-06 6.44362e-05 6.44705e-05
0.00945 0 -2.10375e-06 6.44362e-05 6.44705e-05
0.0095 0 -5.17647e-06 6.26371e-05 6.28506e-05
0.0095 0 -5.17647e-06 6.26371e-05 6.28506e-05
0.00955 0 -8.15344e-06 6.07882e-05 6.13326e-05
0.00955 0 -8.15344e-06 6.07882e-05 6.13326e-05
0.0096 0 -1.10279e-05 5.88935e-05 5.99171e-05
0.0096 0 -1.10279e-05 5.88935e-05 5.99171e-05
0.00965 0 -1.3794e-05 5.69574e-05 5.86039e-05
0.00965 0 -1.3794e-05 5.69574e-05 5.86039e-05
0.0097 0 -1.64472e-05 5.49843e-05 5.73915e-05
0.0097 0 -1.64472e-05 5.49843e-05 5.73915e-05
0.00975 0 -1.89834e-05 5.2979e-05 5.62774e-05
0.00975 0 -1.89834e-05 5.2979e-05 5.62774e-05
0.0098 0 -2.13991e-05 5.09465e-05 5.52582e-05
0.0098 0 -2.13991e-05 5.09465e-05 5.52582e-05
0.00985 0 -2.36905e-05 4.8892e-05 5.43293e-05
0.00985 0 -2.36905e-05 4.8892e-05 5.43293e-05
0.0099 0 -2.58566e-05 4.68206e-05 5.34858e-05
0.0099 0 -2.58566e-05 4.68206e-05 5.34858e-05
0.00995 0 -2.78961e-05 4.47372e-05 5.2722e-05
0.00995 0 -2.78961e-05 4.47372e-05 5.2722e-05
0.01 0 -2.98075e-05 4.26467e-05 5.2031e-05
0.01 0 -2.98075e-05 4.26467e-05 5.2031e-05
0.01005 0 -3.159e-05 4.05538e-05 5.14056e-05
0.01005 0 -3.159e-05 4.05538e-05 5.14056e-05
0.0101 0 -3.32433e-05 3.84629e-05 5.08381e-05
0.0101 0 -3.32433e-05 3.84629e-05 5.08381e-05
0.01015 0 -3.47667e-05 3.63784e-05 5.03201e-05
0.01015 0 -3.47667e-05 3.63784e-05 5.03201e-05
0.0102 0 -3.61594e-05 3.43045e-05 4.98428e-05
0.0102 0 -3.61594e-05 3.43045e-05 4.98428e-05
0.01025 0 -3.74207e-05 3.22451e-05 4.93969e-05
0.01025 0 -3.74207e-05 3.22451e-05 4.93969e-05
0.0103 0 -3.85494e-05 3.02042e-05 4.8973e-05
0.0103 0 -3.85494e-05 3.02042e-05 4.8973e-05
0.01035 0 -3.9544e-05 2.81859e-05 4.8561e-05
0.01035 0 -3.9544e-05 2.81859e-05 4.8561e-05
0.0104 0 -4.0403e-05 2.61938e-05 4.8151e-05
0.0104 0 -4.0403e-05 2.61938e-05 4.8151e-05
0.01045 0 -4.11241e-05 2.42321e-05 4.77325e-05
0.01045 0 -4.11241e-05 2.42321e-05 4.77325e-05
0.0105 0 -4.17054e-05 2.23046e-05 4.72952e-05
0.0105 0 -4.17054e-05 2.23046e-05 4.72952e-05
0.01055 0 -4.21452e-05 2.04151e-05 4.68294e-05
0.01055 0 -4.21452e-05 2.04151e-05 4.68294e-05
0.0106 0 -4.24419e-05 1.85681e-05 4.63259e-05
0.0106 0 -4.24419e-05 1.85681e-05 4.63259e-05
0.01065 0 -4.25904e-05 1.67678e-05 4.57723e-05
0.01065 0 -4.25904e-05 1.67678e-05 4.57723e-05
0.0107 0 -4.25938e-05 1.50184e-05 4.51639e-05
0.0107 0 -4.25938e-05 1.50184e-05 4.51639e-05
0.01075 0 -4.24523e-05 1.33243e-05 4.44942e-05
0.01075 0 -4.24523e-05 1.33243e-05 4.44942e-05
0.0108 0 -4.21622e-05 1.16905e-05 4.37529e-05
0.0108 0 -4.21622e-05 1.16905e-05 4.37529e-05
0.01085 0 -4.17306e-05 1.01212e-05 4.29404e-05
0.01085 0 -4.17306e-05 1.01212e-05 4.29404e-05
0.0109 0 -4.11637e-05 8.62037e-06 4.20566e-05
0.0109 0 -4.11637e-05 8.62037e-06 4.20566e-05
0.01095 0 -4.04642e-05 7.19184e-06 4.10983e-05
0.01095 0 -4.04642e-05 7.19184e-06 4.10983e-05
0.011 0 -3.96414e-05 5.8388e-06 4.00691e-05
0.011 0 -3.96414e-05 5.8388e-06 4.00691e-05
0.01105 0 -3.87049e-05 4.56324e-06 3.8973e-05
0.01105 0 -3.87049e-05 4.56324e-06 3.8973e-05
0.0111 0 -3.76643e-05 3.36651e-06 3.78144e-05
0.0111 0 -3.76643e-05 3.36651e-06 3.78144e-05
0.01115 0 -3.65288e-05 2.24933e-06 3.6598e-05
0.01115 0 -3.65288e-05 2.24933e-06 3.6598e-05
0.0112 0 -3.53087e-05 1.21147e-06 3.53295e-05
0.0112 0 -3.53087e-05 1.21147e-06 3.53295e-05
0.01125 0 -3.40146e-05 2.51997e-07 3.40156e-05
0.01125 0 -3.40146e-05 2.51997e-07 3.40156e-05
0.0113 0 -3.26567e-05 -6.30458e-07 3.26628e-05
0.0113 0 -3.26567e-05 -6.30458e-07 3.26628e-05
0.01135 0 -3.12451e-05 -1.43767e-06 3.12781e-05
0.01135 0 -3.12451e-05 -1.43767e-06 3.12781e-05
0.0114 0 -2.97899e-05 -2.17191e-06 2.98689e-05
0.0114 0 -2.97899e-05 -2.17191e-06 2.98689e-05
0.01145 0 -2.83014e-05 -2.83579e-06 2.84431e-05
0.01145 0 -2.83014e-05 -2.83579e-06 2.84431e-05
0.0115 0 -2.67893e-05 -3.43225e-06 2.70083e-05
0.0115 0 -2.67893e-05 -3.43225e-06 2.70083e-05
0.01155 0 -2.52634e-05 -3.9646e-06 2.55726e-05
0.01155 0 -2.52634e-05 -3.9646e-06 2.55726e-05
0.0116 0 -2.37335e-05 -4.43642e-06 2.41446e-05
0.0116 0 -2.37335e-05 -4.43642e-06 2.41446e-05
0.01165 0 -2.22085e-05 -4.85159e-06 2.27323e-05
0.01165 0 -2.22085e-05 -4.85159e-06 2.27323e-05
0.0117 0 -2.06973e-05 -5.2142e-06 2.1344e-05
0.0117 0 -2.06973e-05 -5.2142e-06 2.1344e-05
0.01175 0 -1.9209e-05 -5.52853e-06 1.99887e-05
0.01175 0 -1.9209e-05 -5.52853e-06 1.99887e-05
0.0118 0 -1.77511e-05 -5.79896e-06 1.86743e-05
0.0118 0 -1.77511e-05 -5.79896e-06 1.86743e-05
0.01185 0 -1.63316e-05 -6.02998e-06 1.74093e-05
0.01185 0 -1.63316e-05 -6.02998e-06 1.74093e-05
0.0119 0 -1.4958e-05 -6.22621e-06 1.62021e-05
0.0119 0 -1.4958e-05 -6.22621e-06 1.62021e-05
0.01195 0 -1.36371e-05 -6.39237e-06 1.5061e-05
0.01195 0 -1.36371e-05 -6.39237e-06 1.5061e-05
0.012 0 -1.23754e-05 -6.53315e-06 1.3994e-05
0.012 0 -1.23754e-05 -6.53315e-06 1.3994e-05
0.01205 0 -1.11783e-05 -6.65332e-06 1.30085e-05
0.01205 0 -1.11783e-05 -6.65332e-06 1.30085e-05
0.0121 0 -1.00514e-05 -6.75765e-06 1.21118e-05
0.0121 0 -1.00514e-05 -6.75765e-06 1.21118e-05
0.01215 0 -8.99969e-06 -6.85093e-06 1.13106e-05
0.01215 0 -8.99969e-06 -6.85093e-06 1.13106e-05
0.0122 0 -8.02681e-06 -6.93784e-06 1.06096e-05
0.0122 0 -8.02681e-06 -6.93784e-06 1.06096e-05
0.01225 0 -7.13614e-06 -7.02304e-06 1.00124e-05
0.01225 0 -7.13614e-06 -7.02304e-06 1.00124e-05
0.0123 0 -6.33024e-06 -7.11113e-06 9.52051e-06
0.0123 0 -6.33024e-06 -7.11113e-06 9.52051e-06
0.01235 0 -5.61132e-06 -7.20657e-06 9.13354e-06
0.01235 0 -5.61132e-06 -7.20657e-06 9.13354e-06
0.0124 0 -4.98041e-06 -7.31361e-06 8.84835e-06
0.0124 0 -4.98041e-06 -7.31361e-06 8.84835e-06
0.01245 0 -4.43827e-06 -7.43633e-06 8.6601e-06
0.01245 0 -4.43827e-06 -7.43633e-06 8.6601e-06
0.0125 0 -3.98512e-06 -7.57855e-06 8.56245e-06
0.0125 0 -3.98512e-06 -7.57855e-06 8.56245e-06
0.01255 0 -3.6207e-06 -7.74377e-06 8.54842e-06
0.01255 0 -3.6207e-06 -7.74377e-06 8.54842e-06
0.0126 0 -3.34416e-06 -7.93515e-06 8.61104e-06
0.0126 0 -3.34416e-06 -7.93515e-06 8.61104e-06
0.01265 0 -3.15625e-06 -8.15557e-06 8.74501e-06
0.01265 0 -3.15625e-06 -8.15557e-06 8.74501e-06
0.0127 0 -3.05689e-06 -8.40776e-06 8.94623e-06
0.0127 0 -3.05689e-06 -8.40776e-06 8.94623e-06
0.01275 0 -3.04693e-06 -8.69443e-06 9.21286e-06
0.01275 0 -3.04693e-06 -8.69443e-06 9.21286e-06
0.0128 0 -3.12536e-06 -9.01836e-06 9.54457e-06
0.0128 0 -3.12536e-06 -9.01836e-06 9.54457e-06
0.01285 0 -3.29511e-06 -9.38256e-06 9.94435e-06
0.01285 0 -3.29511e-06 -9.38256e-06 9.94435e-06
0.0129 0 -3.55292e-06 -9.79007e-06 1.04148e-05
0.0129 0 -3.55292e-06 -9.79007e-06 1.04148e-05
0.01295 0 -3.89773e-06 -1.02442e-05 1.09606e-05
0.01295 0 -3.89773e-06 -1.02442e-05 1.09606e-05
0.013 0 -4.32578e-06 -1.0748e-05 1.15859e-05
0.013 0 -4.32578e-06 -1.0748e-05 1.15859e-05
0.01305 0 -4.83291e-06 -1.13044e-05 1.22942e-05
0.01305 0 -4.83291e-06 -1.13044e-05 1.22942e-05
0.0131 0 -5.41503e-06 -1.19155e-05 1.30882e-05
0.0131 0 -5.41503e-06 -1.19155e-05 1.30882e-05
0.01315 0 -6.0677e-06 -1.25828e-05 1.39694e-05
0.01315 0 -6.0677e-06 -1.25828e-05 1.39694e-05
0.0132 0 -6.78637e-06 -1.33076e-05 1.49381e-05
0.0132 0 -6.78637e-06 -1.33076e-05 1.49381e-05
0.01325 0 -7.56639e-06 -1.40906e-05 1.59936e-05
0.01325 0 -7.56639e-06 -1.40906e-05 1.59936e-05
0.0133 0 -8.40309e-06 -1.49326e-05 1.71346e-05
0.0133 0 -8.40309e-06 -1.49326e-05 1.71346e-05
0.01335 0 -9.29192e-06 -1.58337e-05 1.83588e-05
0.01335 0 -9.29192e-06 -1.58337e-05 1.83588e-05
0.0134 0 -1.02283e-05 -1.67941e-05 1.96636e-05
0.0134 0 -1.02283e-05 -1.67941e-05 1.96636e-05
0.01345 0 -1.12076e-05 -1.78134e-05 2.10459e-05
0.01345 0 -1.12076e-05 -1.78134e-05 2.10459e-05
0.0135 0 -1.22256e-05 -1.88911e-05 2.2502e-05
0.0135 0 -1.22256e-05 -1.88911e-05 2.2502e-05
0.01355 0 -1.32778e-05 -2.00262e-05 2.40281e-05
0.01355 0 -1.32778e-05 -2.00262e-05 2.40281e-05
0.0136 0 -1.43602e-05 -2.12176e-05 2.56204e-05
0.0136 0 -1.43602e-05 -2.12176e-05 2.56204e-05
0.01365 0 -1.54689e-05 -2.24637e-05 2.72746e-05
0.01365 0 -1.54689e-05 -2.24637e-05 2.72746e-05
0.0137 0 -1.65998e-05 -2.37626e-05 2.89864e-05
0.0137 0 -1.65998e-05 -2.37626e-05 2.89864e-05
0.01375 0 -1.77492e-05 -2.51123e-05 3.07516e-05
0.01375 0 -1.77492e-05 -2.51123e-05 3.07516e-05
0.0138 0 -1.89136e-05 -2.65102e-05 3.25655e-05
0.0138 0 -1.89136e-05 -2.65102e-05 3.25655e-05
0.01385 0 -2.00896e-05 -2.79536e-05 3.44237e-05
0.01385 0 -2.00896e-05 -2.79536e-05 3.44237e-05
0.0139 0 -2.12741e-05 -2.94393e-05 3.63216e-05
0.0139 0 -2.12741e-05 -2.94393e-05 3.63216e-05
0.01395 0 -2.24641e-05 -3.09639e-05 3.82544e-05
0.01395 0 -2.24641e-05 -3.09639e-05 3.82544e-05
0.014 0 -2.36571e-05 -3.25239e-05 4.02177e-05
0.014 0 -2.36571e-05 -3.25239e-05 4.02177e-05
0.01405 0 -2.48506e-05 -3.41153e-05 4.22067e-05
0.01405 0 -2.48506e-05 -3.41153e-05 4.22067e-05
0.0141 0 -2.60423e-05 -3.57339e-05 4.42166e-05
0.0141 0 -2.60423e-05 -3.57339e-05 4.42166e-05
0.01415 0 -2.72302e-05 -3.73755e-05 4.62429e-05
0.01415 0 -2.72302e-05 -3.73755e-05 4.62429e-05
0.0142 0 -2.84127e-05 -3.90354e-05 4.82809e-05
0.0142 0 -2.84127e-05 -3.90354e-05 4.82809e-05
0.01425 0 -2.95881e-05 -4.0709e-05 5.03257e-05
0.01425 0 -2.95881e-05 -4.0709e-05 5.03257e-05
0.0143 0 -3.07551e-05 -4.23915e-05 5.23728e-05
0.0143 0 -3.07551e-05 -4.23915e-05 5.23728e-05
0.01435 0 -3.19126e-05 -4.40776e-05 5.44174e-05
0.01435 0 -3.19126e-05 -4.40776e-05 5.44174e-05
0.0144 0 -3.30596e-05 -4.57624e-05 5.64547e-05
0.0144 0 -3.30596e-05 -4.57624e-05 5.64547e-05
0.01445 0 -3.41951e-05 -4.74406e-05 5.84801e-05
0.01445 0 -3.41951e-05 -4.74406e-05 5.84801e-05
0.0145 0 -3.53186e-05 -4.91069e-05 6.04888e-05
0.0145 0 -3.53186e-05 -4.91069e-05 6.04888e-05
0.01455 0 -3.64294e-05 -5.07558e-05 6.2476e-05
0.01455 0 -3.64294e-05 -5.07558e-05 6.2476e-05
0.0146 0 -3.75271e-05 -5.2382e-05 6.44372e-05
0.0146 0 -3.75271e-05 -5.2382e-05 6.44372e-05
0.01465 0 -3.86114e-05 -5.398e-05 6.63678e-05
0.01465 0 -3.86114e-05 -5.398e-05 6.63678e-05
0.0147 0 -3.96821e-05 -5.55443e-05 6.8263e-05
0.0147 0 -3.96821e-05 -5.55443e-05 6.8263e-05
0.01475 0 -4.07391e-05 -5.70695e-05 7.01185e-05
0.01475 0 -4.07391e-05 -5.70695e-05 7.01185e-05
0.0148 0 -4.17824e-05 -5.85502e-05 7.19298e-05
0.0148 0 -4.17824e-05 -5.85502e-05 7.19298e-05
0.01485 0 -4.28122e-05 -5.9981e-05 7.36927e-05
0.01485 0 -4.28122e-05 -5.9981e-05 7.36927e-05
0.0149 0 -4.38288e-05 -6.13568e-05 7.5403e-05
0.0149 0 -4.38288e-05 -6.13568e-05 7.5403e-05
0.01495 0 -4.48325e-05 -6.26723e-05 7.7057e-05
0.01495 0 -4.48325e-05 -6.26723e-05 7.7057e-05
0.015 0 -4.5824e-05 -6.39225e-05 7.86506e-05
0.015 0 -4.5824e-05 -6.39225e-05 7.86506e-05
0.01505 0 -4.68037e-05 -6.51024e-05 8.01805e-05
0.01505 0 -4.68037e-05 -6.51024e-05 8.01805e-05
0.0151 0 -4.77723e-05 -6.62074e-05 8.16432e-05
0.0151 0 -4.77723e-05 -6.62074e-05 8.16432e-05
0.01515 0 -4.87305e-05 -6.72328e-05 8.30356e-05
0.01515 0 -4.87305e-05 -6.72328e-05 8.30356e-05
0.0152 0 -4.96791e-05 -6.81741e-05 8.43548e-05
0.0152 0 -4.96791e-05 -6.81741e-05 8.43548e-05
0.01525 0 -5.06189e-05 -6.90272e-05 8.55981e-05
0.01525 0 -5.06189e-05 -6.90272e-05 8.55981e-05
0.0153 0 -5.15507e-05 -6.97881e-05 8.67632e-05
0.0153 0 -5.15507e-05 -6.97881e-05 8.67632e-05
0.01535 0 -5.24753e-05 -7.04529e-05 8.78479e-05
0.01535 0 -5.24753e-05 -7.04529e-05 8.78479e-05
0.0154 0 -5.33935e-05 -7.10179e-05 8.88505e-05
0.0154 0 -5.33935e-05 -7.10179e-05 8.88505e-05
0.01545 0 -5.43061e-05 -7.14799e-05 8.97693e-05
0.01545 0 -5.43061e-05 -7.14799e-05 8.97693e-05
0.0155 0 -5.52138e-05 -7.18356e-05 9.06031e-05
0.0155 0 -5.52138e-05 -7.18356e-05 9.06031e-05
0.01555 0 -5.61174e-05 -7.20822e-05 9.1351e-05
0.01555 0 -5.61174e-05 -7.20822e-05 9.1351e-05
0.0156 0 -5.70175e-05 -7.22169e-05 9.20124e-05
0.0156 0 -5.70175e-05 -7.22169e-05 9.20124e-05
0.01565 0 -5.79147e-05 -7.22373e-05 9.25869e-05
0.01565 0 -5.79147e-05 -7.22373e-05 9.25869e-05
0.0157 0 -5.88094e-05 -7.21413e-05 9.30747e-05
0.0157 0 -5.88094e-05 -7.21413e-05 9.30747e-05
0.01575 0 -5.97021e-05 -7.19268e-05 9.34762e-05
0.01575 0 -5.97021e-05 -7.19268e-05 9.34762e-05
0.0158 0 -6.05931e-05 -7.15922e-05 9.37922e-05
0.0158 0 -6.05931e-05 -7.15922e-05 9.37922e-05
0.01585 0 -6.14826e-05 -7.11362e-05 9.40238e-05
0.01585 0 -6.14826e-05 -7.11362e-05 9.40238e-05
0.0159 0 -6.23707e-05 -7.05576e-05 9.41726e-05
0.0159 0 -6.23707e-05 -7.05576e-05 9.41726e-05
0.01595 0 -6.32573e-05 -6.98554e-05 9.42405e-05
0.01595 0 -6.32573e-05 -6.98554e-05 9.42405e-05
0.016 0 -6.41423e-05 -6.90291e-05 9.42298e-05
0.016 0 -6.41423e-05 -6.90291e-05 9.42298e-05
0.01605 0 -6.50253e-05 -6.80783e-05 9.41433e-05
0.01605 0 -6.50253e-05 -6.80783e-05 9.41433e-05
0.0161 0 -6.5906e-05 -6.7003e-05 9.39841e-05
0.0161 0 -6.5906e-05 -6.7003e-05 9.39841e-05
0.01615 0 -6.67837e-05 -6.58033e-05 9.37557e-05
0.01615 0 -6.67837e-05 -6.58033e-05 9.37557e-05
0.0162 0 -6.76578e-05 -6.44796e-05 9.34623e-05