# Time Dx Dy Dz magD
0.0001 0 2.7029e-10 -2.47294e-11 2.71419e-10
0.0001 0 2.7029e-10 -2.47294e-11 2.71419e-10
0.0002 0 9.30751e-10 -1.233e-10 9.38883e-10
0.0002 0 9.30751e-10 -1.233e-10 9.38883e-10
0.0003 0 2.20029e-09 -3.97103e-10 2.23584e-09
0.0003 0 2.20029e-09 -3.97103e-10 2.23584e-09
0.0004 0 4.27251e-09 -1.09706e-09 4.41111e-09
0.0004 0 4.27251e-09 -1.09706e-09 4.41111e-09
0.0005 0 7.53962e-09 -2.84106e-09 8.05714e-09
0.0005 0 7.53962e-09 -2.84106e-09 8.05714e-09
0.0006 0 1.24097e-08 -7.03596e-09 1.42655e-08
0.0006 0 1.24097e-08 -7.03596e-09 1.42655e-08
0.0007 0 1.95333e-08 -1.66066e-08 2.56384e-08
0.0007 0 1.95333e-08 -1.66066e-08 2.56384e-08
0.0008 0 2.97215e-08 -3.70771e-08 4.75192e-08
0.0008 0 2.97215e-08 -3.70771e-08 4.75192e-08
0.0009 0 4.40181e-08 -7.79084e-08 8.94835e-08
0.0009 0 4.40181e-08 -7.79084e-08 8.94835e-08
0.001 0 6.37526e-08 -1.5381e-07 1.66499e-07
0.001 0 6.37526e-08 -1.5381e-07 1.66499e-07
0.0011 0 9.04996e-08 -2.85593e-07 2.99589e-07
0.0011 0 9.04996e-08 -2.85593e-07 2.99589e-07
0.0012 0 1.2592e-07 -5.00114e-07 5.15723e-07
0.0012 0 1.2592e-07 -5.00114e-07 5.15723e-07
0.0013 0 1.71854e-07 -8.29035e-07 8.4666e-07
0.0013 0 1.71854e-07 -8.29035e-07 8.4666e-07
0.0014 0 2.30255e-07 -1.30642e-06 1.32655e-06
0.0014 0 2.30255e-07 -1.30642e-06 1.32655e-06
0.0015 0 3.02922e-07 -1.96554e-06 1.98875e-06
0.0015 0 3.02922e-07 -1.96554e-06 1.98875e-06
0.0016 0 3.91878e-07 -2.83557e-06 2.86252e-06
0.0016 0 3.91878e-07 -2.83557e-06 2.86252e-06
0.0017 0 4.99248e-07 -3.93869e-06 3.97021e-06
0.0017 0 4.99248e-07 -3.93869e-06 3.97021e-06
0.0018 0 6.27194e-07 -5.28832e-06 5.32538e-06
0.0018 0 6.27194e-07 -5.28832e-06 5.32538e-06
0.0019 0 7.7874e-07 -6.88848e-06 6.93236e-06
0.0019 0 7.7874e-07 -6.88848e-06 6.93236e-06
0.002 0 9.56849e-07 -8.73438e-06 8.78663e-06
0.002 0 9.56849e-07 -8.73438e-06 8.78663e-06
0.0021 0 1.16539e-06 -1.08138e-05 1.08764e-05
0.0021 0 1.16539e-06 -1.08138e-05 1.08764e-05
0.0022 0 1.40861e-06 -1.31091e-05 1.31845e-05
0.0022 0 1.40861e-06 -1.31091e-05 1.31845e-05
0.0023 0 1.69183e-06 -1.55989e-05 1.56903e-05
0.0023 0 1.69183e-06 -1.55989e-05 1.56903e-05
0.0024 0 2.02043e-06 -1.826e-05 1.83715e-05
0.0024 0 2.02043e-06 -1.826e-05 1.83715e-05
0.0025 0 2.40078e-06 -2.10689e-05 2.12053e-05
0.0025 0 2.40078e-06 -2.10689e-05 2.12053e-05
0.0026 0 2.83975e-06 -2.40024e-05 2.41698e-05
0.0026 0 2.83975e-06 -2.40024e-05 2.41698e-05
0.0027 0 3.34407e-06 -2.70383e-05 2.72443e-05
0.0027 0 3.34407e-06 -2.70383e-05 2.72443e-05
0.0028 0 3.92166e-06 -3.01559e-05 3.04098e-05
0.0028 0 3.92166e-06 -3.01559e-05 3.04098e-05
0.0029 0 4.58039e-06 -3.33356e-05 3.36488e-05
0.0029 0 4.58039e-06 -3.33356e-05 3.36488e-05
0.003 0 5.3284e-06 -3.65595e-05 3.69458e-05
0.003 0 5.3284e-06 -3.65595e-05 3.69458e-05
0.0031 0 6.17439e-06 -3.98103e-05 4.02863e-05
0.0031 0 6.17439e-06 -3.98103e-05 4.02863e-05
0.0032 0 7.12742e-06 -4.30719e-05 4.36576e-05
0.0032 0 7.12742e-06 -4.30719e-05 4.36576e-05
0.0033 0 8.19708e-06 -4.63282e-05 4.70478e-05
0.0033 0 8.19708e-06 -4.63282e-05 4.70478e-05
0.0034 0 9.39337e-06 -4.95633e-05 5.04456e-05
0.0034 0 9.39337e-06 -4.95633e-05 5.04456e-05
0.0035 0 1.0727e-05 -5.27607e-05 5.38401e-05
0.0035 0 1.0727e-05 -5.27607e-05 5.38401e-05
0.0036 0 1.22087e-05 -5.59022e-05 5.72198e-05
0.0036 0 1.22087e-05 -5.59022e-05 5.72198e-05
0.0037 0 1.38494e-05 -5.89672e-05 6.05718e-05
0.0037 0 1.38494e-05 -5.89672e-05 6.05718e-05
0.0038 0 1.56596e-05 -6.19315e-05 6.38806e-05
0.0038 0 1.56596e-05 -6.19315e-05 6.38806e-05
0.0039 0 1.76489e-05 -6.47654e-05 6.7127e-05
0.0039 0 1.76489e-05 -6.47654e-05 6.7127e-05
0.004 0 1.98257e-05 -6.7433e-05 7.0287e-05
0.004 0 1.98257e-05 -6.7433e-05 7.0287e-05
0.0041 0 2.21961e-05 -6.98913e-05 7.33311e-05
0.0041 0 2.21961e-05 -6.98913e-05 7.33311e-05
0.0042 0 2.47639e-05 -7.2091e-05 7.62257e-05
0.0042 0 2.47639e-05 -7.2091e-05 7.62257e-05
0.0043 0 2.75301e-05 -7.39782e-05 7.89347e-05
0.0043 0 2.75301e-05 -7.39782e-05 7.89347e-05
0.0044 0 3.04928e-05 -7.54976e-05 8.14229e-05
0.0044 0 3.04928e-05 -7.54976e-05 8.14229e-05
0.0045 0 3.36464e-05 -7.65963e-05 8.36605e-05
0.0045 0 3.36464e-05 -7.65963e-05 8.36605e-05
0.0046 0 3.69827e-05 -7.72281e-05 8.56265e-05
0.0046 0 3.69827e-05 -7.72281e-05 8.56265e-05
0.0047 0 4.04906e-05 -7.73564e-05 8.73127e-05
0.0047 0 4.04906e-05 -7.73564e-05 8.73127e-05
0.0048 0 4.41566e-05 -7.6957e-05 8.87253e-05
0.0048 0 4.41566e-05 -7.6957e-05 8.87253e-05
0.0049 0 4.79654e-05 -7.60186e-05 8.98861e-05
0.0049 0 4.79654e-05 -7.60186e-05 8.98861e-05
0.005 0 5.19e-05 -7.45426e-05 9.08306e-05
0.005 0 5.19e-05 -7.45426e-05 9.08306e-05
0.0051 0 5.59428e-05 -7.2541e-05 9.16067e-05
0.0051 0 5.59428e-05 -7.2541e-05 9.16067e-05
0.0052 0 6.00754e-05 -7.00348e-05 9.2271e-05
0.0052 0 6.00754e-05 -7.00348e-05 9.2271e-05
0.0053 0 6.42794e-05 -6.70512e-05 9.28854e-05
0.0053 0 6.42794e-05 -6.70512e-05 9.28854e-05
0.0054 0 6.85354e-05 -6.36214e-05 9.35135e-05
0.0054 0 6.85354e-05 -6.36214e-05 9.35135e-05
0.0055 0 7.28235e-05 -5.97789e-05 9.42167e-05
0.0055 0 7.28235e-05 -5.97789e-05 9.42167e-05
0.0056 0 7.71227e-05 -5.55575e-05 9.50502e-05
0.0056 0 7.71227e-05 -5.55575e-05 9.50502e-05
0.0057 0 8.14097e-05 -5.09908e-05 9.60604e-05
0.0057 0 8.14097e-05 -5.09908e-05 9.60604e-05
0.0058 0 8.56587e-05 -4.61112e-05 9.72814e-05
0.0058 0 8.56587e-05 -4.61112e-05 9.72814e-05
0.0059 0 8.98404e-05 -4.09501e-05 9.8733e-05
0.0059 0 8.98404e-05 -4.09501e-05 9.8733e-05
0.006 0 9.39214e-05 -3.55374e-05 0.00010042
0.006 0 9.39214e-05 -3.55374e-05 0.00010042
0.0061 0 9.78636e-05 -2.99026e-05 0.00010233
0.0061 0 9.78636e-05 -2.99026e-05 0.00010233
0.0062 0 0.000101624 -2.40747e-05 0.000104437
0.0062 0 0.000101624 -2.40747e-05 0.000104437
0.0063 0 0.000105157 -1.80833e-05 0.000106701
0.0063 0 0.000105157 -1.80833e-05 0.000106701
0.0064 0 0.000108411 -1.19593e-05 0.000109069
0.0064 0 0.000108411 -1.19593e-05 0.000109069
0.0065 0 0.000111333 -5.73532e-06 0.000111481
0.0065 0 0.000111333 -5.73532e-06 0.000111481
0.0066 0 0.000113869 5.53417e-07 0.000113871
0.0066 0 0.000113869 5.53417e-07 0.000113871
0.0067 0 0.000115967 6.86867e-06 0.00011617
0.0067 0 0.000115967 6.86867e-06 0.00011617
0.0068 0 0.000117574 1.31691e-05 0.00011831
0.0068 0 0.000117574 1.31691e-05 0.00011831
0.0069 0 0.000118646 1.94102e-05 0.000120224
0.0069 0 0.000118646 1.94102e-05 0.000120224
0.007 0 0.000119144 2.5545e-05 0.000121851
0.007 0 0.000119144 2.5545e-05 0.000121851
0.0071 0 0.000119035 3.15243e-05 0.000123139
0.0071 0 0.000119035 3.15243e-05 0.000123139
0.0072 0 0.000118301 3.7298e-05 0.000124041
0.0072 0 0.000118301 3.7298e-05 0.000124041
0.0073 0 0.000116929 4.28164e-05 0.000124522
0.0073 0 0.000116929 4.28164e-05 0.000124522
0.0074 0 0.000114922 4.80309e-05 0.000124556
0.0074 0 0.000114922 4.80309e-05 0.000124556
0.0075 0 0.000112293 5.28961e-05 0.000124128
0.0075 0 0.000112293 5.28961e-05 0.000124128
0.0076 0 0.000109065 5.73706e-05 0.000123233
0.0076 0 0.000109065 5.73706e-05 0.000123233
0.0077 0 0.000105271 6.14183e-05 0.000121878
0.0077 0 0.000105271 6.14183e-05 0.000121878
0.0078 0 0.000100954 6.50093e-05 0.000120075
0.0078 0 0.000100954 6.50093e-05 0.000120075
0.0079 0 9.61631e-05 6.81208e-05 0.000117846
0.0079 0 9.61631e-05 6.81208e-05 0.000117846
0.008 0 9.09534e-05 7.0737e-05 0.000115223
0.008 0 9.09534e-05 7.0737e-05 0.000115223
0.0081 0 8.53831e-05 7.28495e-05 0.000112238
0.0081 0 8.53831e-05 7.28495e-05 0.000112238
0.0082 0 7.95126e-05 7.44573e-05 0.000108932
0.0082 0 7.95126e-05 7.44573e-05 0.000108932
0.0083 0 7.34026e-05 7.55655e-05 0.000105347
0.0083 0 7.34026e-05 7.55655e-05 0.000105347
0.0084 0 6.71131e-05 7.61855e-05 0.00010153
0.0084 0 6.71131e-05 7.61855e-05 0.00010153
0.0085 0 6.07015e-05 7.63337e-05 9.7527e-05
0.0085 0 6.07015e-05 7.63337e-05 9.7527e-05
0.0086 0 5.42227e-05 7.60309e-05 9.33852e-05
0.0086 0 5.42227e-05 7.60309e-05 9.33852e-05
0.0087 0 4.77282e-05 7.5301e-05 8.91528e-05
0.0087 0 4.77282e-05 7.5301e-05 8.91528e-05
0.0088 0 4.12655e-05 7.41709e-05 8.48773e-05
0.0088 0 4.12655e-05 7.41709e-05 8.48773e-05
0.0089 0 3.48791e-05 7.2669e-05 8.0606e-05
0.0089 0 3.48791e-05 7.2669e-05 8.0606e-05
0.009 0 2.86093e-05 7.08249e-05 7.6385e-05
0.009 0 2.86093e-05 7.08249e-05 7.6385e-05
0.0091 0 2.24937e-05 6.86692e-05 7.22594e-05
0.0091 0 2.24937e-05 6.86692e-05 7.22594e-05
0.0092 0 1.65669e-05 6.62324e-05 6.8273e-05
0.0092 0 1.65669e-05 6.62324e-05 6.8273e-05
0.0093 0 1.08609e-05 6.35456e-05 6.4467e-05
0.0093 0 1.08609e-05 6.35456e-05 6.4467e-05
0.0094 0 5.40541e-06 6.06393e-05 6.08797e-05
0.0094 0 5.40541e-06 6.06393e-05 6.08797e-05
0.0095 0 2.28405e-07 5.7544e-05 5.75445e-05
0.0095 0 2.28405e-07 5.7544e-05 5.75445e-05
0.0096 0 -4.64428e-06 5.42902e-05 5.44885e-05
0.0096 0 -4.64428e-06 5.42902e-05 5.44885e-05
0.0097 0 -9.18855e-06 5.0908e-05 5.17305e-05
0.0097 0 -9.18855e-06 5.0908e-05 5.17305e-05
0.0098 0 -1.33822e-05 4.7427e-05 4.92788e-05
0.0098 0 -1.33822e-05 4.7427e-05 4.92788e-05
0.0099 0 -1.72058e-05 4.38768e-05 4.71297e-05
0.0099 0 -1.72058e-05 4.38768e-05 4.71297e-05
0.01 0 -2.06417e-05 4.02864e-05 4.52667e-05
0.01 0 -2.06417e-05 4.02864e-05 4.52667e-05
0.0101 0 -2.36759e-05 3.66844e-05 4.36611e-05
0.0101 0 -2.36759e-05 3.66844e-05 4.36611e-05
0.0102 0 -2.62977e-05 3.30984e-05 4.22738e-05
0.0102 0 -2.62977e-05 3.30984e-05 4.22738e-05
0.0103 0 -2.85001e-05 2.95552e-05 4.10581e-05
0.0103 0 -2.85001e-05 2.95552e-05 4.10581e-05
0.0104 0 -3.02812e-05 2.60801e-05 3.9964e-05
0.0104 0 -3.02812e-05 2.60801e-05 3.9964e-05
0.0105 0 -3.16435e-05 2.26967e-05 3.89416e-05
0.0105 0 -3.16435e-05 2.26967e-05 3.89416e-05
0.0106 0 -3.25945e-05 1.94267e-05 3.79447e-05
0.0106 0 -3.25945e-05 1.94267e-05 3.79447e-05
0.0107 0 -3.31475e-05 1.62893e-05 3.69337e-05
0.0107 0 -3.31475e-05 1.62893e-05 3.69337e-05
0.0108 0 -3.3321e-05 1.33011e-05 3.58777e-05
0.0108 0 -3.3321e-05 1.33011e-05 3.58777e-05
0.0109 0 -3.31386e-05 1.04755e-05 3.47549e-05
0.0109 0 -3.31386e-05 1.04755e-05 3.47549e-05
0.011 0 -3.2629e-05 7.82276e-06 3.35536e-05
0.011 0 -3.2629e-05 7.82276e-06 3.35536e-05
0.0111 0 -3.18256e-05 5.34956e-06 3.22721e-05
0.0111 0 -3.18256e-05 5.34956e-06 3.22721e-05
0.0112 0 -3.0766e-05 3.05912e-06 3.09177e-05
0.0112 0 -3.0766e-05 3.05912e-06 3.09177e-05
0.0113 0 -2.94902e-05 9.51058e-07 2.95055e-05
0.0113 0 -2.94902e-05 9.51058e-07 2.95055e-05
0.0114 0 -2.80418e-05 -9.78524e-07 2.80589e-05
0.0114 0 -2.80418e-05 -9.78524e-07 2.80589e-05
0.0115 0 -2.64653e-05 -2.73686e-06 2.66064e-05
0.0115 0 -2.64653e-05 -2.73686e-06 2.66064e-05
0.0116 0 -2.48058e-05 -4.33432e-06 2.51816e-05
0.0116 0 -2.48058e-05 -4.33432e-06 2.51816e-05
0.0117 0 -2.31086e-05 -5.78404e-06 2.38214e-05
0.0117 0 -2.31086e-05 -5.78404e-06 2.38214e-05
0.0118 0 -2.14173e-05 -7.10163e-06 2.2564e-05
0.0118 0 -2.14173e-05 -7.10163e-06 2.2564e-05
0.0119 0 -1.97735e-05 -8.30471e-06 2.14467e-05
0.0119 0 -1.97735e-05 -8.30471e-06 2.14467e-05
0.012 0 -1.82161e-05 -9.41247e-06 2.05042e-05
0.012 0 -1.82161e-05 -9.41247e-06 2.05042e-05
0.0121 0 -1.67804e-05 -1.04452e-05 1.97657e-05
0.0121 0 -1.67804e-05 -1.04452e-05 1.97657e-05
0.0122 0 -1.54975e-05 -1.14237e-05 1.92529e-05
0.0122 0 -1.54975e-05 -1.14237e-05 1.92529e-05
0.0123 0 -1.43943e-05 -1.2369e-05 1.89786e-05
0.0123 0 -1.43943e-05 -1.2369e-05 1.89786e-05
0.0124 0 -1.34925e-05 -1.33019e-05 1.89469e-05
0.0124 0 -1.34925e-05 -1.33019e-05 1.89469e-05
0.0125 0 -1.28089e-05 -1.4242e-05 1.91547e-05
0.0125 0 -1.28089e-05 -1.4242e-05 1.91547e-05
0.0126 0 -1.23557e-05 -1.5208e-05 1.95945e-05
0.0126 0 -1.23557e-05 -1.5208e-05 1.95945e-05
0.0127 0 -1.21399e-05 -1.62169e-05 2.02575e-05
0.0127 0 -1.21399e-05 -1.62169e-05 2.02575e-05
0.0128 0 -1.21641e-05 -1.72837e-05 2.11351e-05
0.0128 0 -1.21641e-05 -1.72837e-05 2.11351e-05
0.0129 0 -1.24264e-05 -1.84213e-05 2.22207e-05
0.0129 0 -1.24264e-05 -1.84213e-05 2.22207e-05
0.013 0 -1.29212e-05 -1.96398e-05 2.35091e-05
0.013 0 -1.29212e-05 -1.96398e-05 2.35091e-05
0.0131 0 -1.36392e-05 -2.09468e-05 2.4996e-05
0.0131 0 -1.36392e-05 -2.09468e-05 2.4996e-05
0.0132 0 -1.45683e-05 -2.23471e-05 2.66764e-05
0.0132 0 -1.45683e-05 -2.23471e-05 2.66764e-05
0.0133 0 -1.56943e-05 -2.38422e-05 2.8544e-05
0.0133 0 -1.56943e-05 -2.38422e-05 2.8544e-05
0.0134 0 -1.70005e-05 -2.54309e-05 3.05901e-05
0.0134 0 -1.70005e-05 -2.54309e-05 3.05901e-05
0.0135 0 -1.84692e-05 -2.71089e-05 3.28025e-05
0.0135 0 -1.84692e-05 -2.71089e-05 3.28025e-05
0.0136 0 -2.00817e-05 -2.88689e-05 3.51666e-05
0.0136 0 -2.00817e-05 -2.88689e-05 3.51666e-05
0.0137 0 -2.18192e-05 -3.07006e-05 3.76643e-05
0.0137 0 -2.18192e-05 -3.07006e-05 3.76643e-05
0.0138 0 -2.36622e-05 -3.25912e-05 4.02752e-05
0.0138 0 -2.36622e-05 -3.25912e-05 4.02752e-05
0.0139 0 -2.55925e-05 -3.45253e-05 4.29764e-05
0.0139 0 -2.55925e-05 -3.45253e-05 4.29764e-05
0.014 0 -2.75919e-05 -3.64852e-05 4.57436e-05
0.014 0 -2.75919e-05 -3.64852e-05 4.57436e-05
0.0141 0 -2.96437e-05 -3.8451e-05 4.85513e-05
0.0141 0 -2.96437e-05 -3.8451e-05 4.85513e-05
0.0142 0 -3.17321e-05 -4.04014e-05 5.13731e-05
0.0142 0 -3.17321e-05 -4.04014e-05 5.13731e-05
0.0143 0 -3.38428e-05 -4.23133e-05 5.41826e-05
0.0143 0 -3.38428e-05 -4.23133e-05 5.41826e-05
0.0144 0 -3.59626e-05 -4.4163e-05 5.69533e-05
0.0144 0 -3.59626e-05 -4.4163e-05 5.69533e-05
0.0145 0 -3.80804e-05 -4.59256e-05 5.96597e-05
0.0145 0 -3.80804e-05 -4.59256e-05 5.96597e-05
0.0146 0 -4.01863e-05 -4.75762e-05 6.2277e-05
0.0146 0 -4.01863e-05 -4.75762e-05 6.2277e-05
0.0147 0 -4.22716e-05 -4.90898e-05 6.47819e-05
0.0147 0 -4.22716e-05 -4.90898e-05 6.47819e-05
0.0148 0 -4.43295e-05 -5.04418e-05 6.71527e-05
0.0148 0 -4.43295e-05 -5.04418e-05 6.71527e-05
0.0149 0 -4.63541e-05 -5.16086e-05 6.93696e-05
0.0149 0 -4.63541e-05 -5.16086e-05 6.93696e-05
0.015 0 -4.83407e-05 -5.25672e-05 7.14152e-05
0.015 0 -4.83407e-05 -5.25672e-05 7.14152e-05
0.0151 0 -5.02856e-05 -5.32965e-05 7.32746e-05
0.0151 0 -5.02856e-05 -5.32965e-05 7.32746e-05
0.0152 0 -5.21858e-05 -5.37768e-05 7.49353e-05
0.0152 0 -5.21858e-05 -5.37768e-05 7.49353e-05
0.0153 0 -5.40389e-05 -5.39905e-05 7.63884e-05
0.0153 0 -5.40389e-05 -5.39905e-05 7.63884e-05
0.0154 0 -5.58431e-05 -5.39224e-05 7.76278e-05
0.0154 0 -5.58431e-05 -5.39224e-05 7.76278e-05
0.0155 0 -5.75963e-05 -5.35592e-05 7.86507e-05
0.0155 0 -5.75963e-05 -5.35592e-05 7.86507e-05
0.0156 0 -5.9297e-05 -5.28909e-05 7.9458e-05
0.0156 0 -5.9297e-05 -5.28909e-05 7.9458e-05
0.0157 0 -6.09432e-05 -5.19096e-05 8.00542e-05
0.0157 0 -6.09432e-05 -5.19096e-05 8.00542e-05
0.0158 0 -6.25327e-05 -5.06106e-05 8.04474e-05
0.0158 0 -6.25327e-05 -5.06106e-05 8.04474e-05
0.0159 0 -6.40632e-05 -4.89922e-05 8.06494e-05
0.0159 0 -6.40632e-05 -4.89922e-05 8.06494e-05
0.016 0 -6.55314e-05 -4.70553e-05 8.06757e-05
0.016 0 -6.55314e-05 -4.70553e-05 8.06757e-05
0.0161 0 -6.69337e-05 -4.48041e-05 8.05452e-05
0.0161 0 -6.69337e-05 -4.48041e-05 8.05452e-05
0.0162 0 -6.82658e-05 -4.22456e-05 8.02802e-05
0.0162 0 -6.82658e-05 -4.22456e-05 8.02802e-05
0.0163 0 -6.95226e-05 -3.93898e-05 7.99058e-05
0.0163 0 -6.95226e-05 -3.93898e-05 7.99058e-05
0.0164 0 -7.06982e-05 -3.62494e-05 7.94497e-05
0.0164 0 -7.06982e-05 -3.62494e-05 7.94497e-05
0.0165 0 -7.17864e-05 -3.284e-05 7.89414e-05
0.0165 0 -7.17864e-05 -3.284e-05 7.89414e-05
0.0166 0 -7.27797e-05 -2.91796e-05 7.84113e-05
0.0166 0 -7.27797e-05 -2.91796e-05 7.84113e-05
0.0167 0 -7.36705e-05 -2.52887e-05 7.78901e-05
0.0167 0 -7.36705e-05 -2.52887e-05 7.78901e-05
0.0168 0 -7.44504e-05 -2.11901e-05 7.74072e-05
0.0168 0 -7.44504e-05 -2.11901e-05 7.74072e-05
0.0169 0 -7.51105e-05 -1.69086e-05 7.69902e-05
0.0169 0 -7.51105e-05 -1.69086e-05 7.69902e-05
0.017 0 -7.56416e-05 -1.2471e-05 7.66627e-05
0.017 0 -7.56416e-05 -1.2471e-05 7.66627e-05
0.0171 0 -7.60341e-05 -7.90555e-06 7.6444e-05
0.0171 0 -7.60341e-05 -7.90555e-06 7.6444e-05
0.0172 0 -7.62785e-05 -3.24185e-06 7.63473e-05
0.0172 0 -7.62785e-05 -3.24185e-06 7.63473e-05
0.0173 0 -7.63651e-05 1.48933e-06 7.63796e-05
0.0173 0 -7.63651e-05 1.48933e-06 7.63796e-05
0.0174 0 -7.62845e-05 6.25641e-06 7.65406e-05
0.0174 0 -7.62845e-05 6.25641e-06 7.65406e-05
0.0175 0 -7.60275e-05 1.10273e-05 7.68231e-05
0.0175 0 -7.60275e-05 1.10273e-05 7.68231e-05
0.0176 0 -7.55852e-05 1.57695e-05 7.72127e-05
0.0176 0 -7.55852e-05 1.57695e-05 7.72127e-05
0.0177 0 -7.49495e-05 2.04509e-05 7.76896e-05
0.0177 0 -7.49495e-05 2.04509e-05 7.76896e-05
0.0178 0 -7.41132e-05 2.50392e-05 7.82286e-05
0.0178 0 -7.41132e-05 2.50392e-05 7.82286e-05
0.0179 0 -7.30692e-05 2.9503e-05 7.88006e-05
0.0179 0 -7.30692e-05 2.9503e-05 7.88006e-05
0.018 0 -7.18124e-05 3.38119e-05 7.93742e-05
0.018 0 -7.18124e-05 3.38119e-05 7.93742e-05
0.0181 0 -7.03383e-05 3.79362e-05 7.99164e-05
0.0181 0 -7.03383e-05 3.79362e-05 7.99164e-05
0.0182 0 -6.86437e-05 4.18479e-05 8.03941e-05
0.0182 0 -6.86437e-05 4.18479e-05 8.03941e-05
0.0183 0 -6.67272e-05 4.55206e-05 8.07753e-05
0.0183 0 -6.67272e-05 4.55206e-05 8.07753e-05
0.0184 0 -6.45886e-05 4.89298e-05 8.10297e-05
0.0184 0 -6.45886e-05 4.89298e-05 8.10297e-05
0.0185 0 -6.22293e-05 5.20528e-05 8.11294e-05
0.0185 0 -6.22293e-05 5.20528e-05 8.11294e-05
0.0186 0 -5.9653e-05 5.48694e-05 8.10502e-05
0.0186 0 -5.9653e-05 5.48694e-05 8.10502e-05
0.0187 0 -5.68646e-05 5.73618e-05 8.07711e-05
0.0187 0 -5.68646e-05 5.73618e-05 8.07711e-05
0.0188 0 -5.38712e-05 5.95148e-05 8.02753e-05
0.0188 0 -5.38712e-05 5.95148e-05 8.02753e-05
0.0189 0 -5.06817e-05 6.13159e-05 7.95504e-05
0.0189 0 -5.06817e-05 6.13159e-05 7.95504e-05
0.019 0 -4.73071e-05 6.27552e-05 7.85887e-05
0.019 0 -4.73071e-05 6.27552e-05 7.85887e-05
0.0191 0 -4.37603e-05 6.38261e-05 7.73869e-05
0.0191 0 -4.37603e-05 6.38261e-05 7.73869e-05
0.0192 0 -4.0056e-05 6.45247e-05 7.59468e-05
0.0192 0 -4.0056e-05 6.45247e-05 7.59468e-05
0.0193 0 -3.62107e-05 6.48501e-05 7.42748e-05
0.0193 0 -3.62107e-05 6.48501e-05 7.42748e-05
0.0194 0 -3.22429e-05 6.48045e-05 7.23825e-05
0.0194 0 -3.22429e-05 6.48045e-05 7.23825e-05
0.0195 0 -2.81722e-05 6.43929e-05 7.0286e-05
0.0195 0 -2.81722e-05 6.43929e-05 7.0286e-05
0.0196 0 -2.40202e-05 6.36236e-05 6.80068e-05
0.0196 0 -2.40202e-05 6.36236e-05 6.80068e-05
0.0197 0 -1.98092e-05 6.25072e-05 6.5571e-05
0.0197 0 -1.98092e-05 6.25072e-05 6.5571e-05
0.0198 0 -1.5563e-05 6.10575e-05 6.30097e-05
0.0198 0 -1.5563e-05 6.10575e-05 6.30097e-05
0.0199 0 -1.13054e-05 5.92906e-05 6.03589e-05
0.0199 0 -1.13054e-05 5.92906e-05 6.03589e-05
0.02 0 -7.06194e-06 5.72252e-05 5.76593e-05
0.02 0 -7.06194e-06 5.72252e-05 5.76593e-05
