# Time Dx Dy Dz magD
2.5e-05 0 0 0 0
2.5e-05 0 0 0 0
2.5e-05 0 3.39581e-07 -5.88838e-11 3.39581e-07
2.5e-05 0 3.39581e-07 -5.88838e-11 3.39581e-07
2.5e-05 0 6.79161e-07 -1.17768e-10 6.79161e-07
2.5e-05 0 6.79161e-07 -1.17768e-10 6.79161e-07
2.5e-05 0 -1.46902e-07 -9.01662e-11 1.46902e-07
2.5e-05 0 -1.46902e-07 -9.01662e-11 1.46902e-07
2.5e-05 0 -2.07783e-07 -5.60027e-11 2.07783e-07
2.5e-05 0 -2.07783e-07 -5.60027e-11 2.07783e-07
2.5e-05 0 -3.43012e-08 3.40943e-11 3.43013e-08
2.5e-05 0 -3.43012e-08 3.40943e-11 3.43013e-08
2.5e-05 0 -2.66572e-08 4.52562e-11 2.66572e-08
2.5e-05 0 -2.66572e-08 4.52562e-11 2.66572e-08
2.5e-05 0 8.79354e-08 -1.59042e-10 8.79355e-08
2.5e-05 0 8.79354e-08 -1.59042e-10 8.79355e-08
2.5e-05 0 9.51718e-08 -1.52855e-10 9.5172e-08
2.5e-05 0 9.51718e-08 -1.52855e-10 9.5172e-08
2.5e-05 0 -4.48027e-08 -1.94569e-10 4.48032e-08
2.5e-05 0 -4.48027e-08 -1.94569e-10 4.48032e-08
2.5e-05 0 -5.62629e-08 -1.71772e-10 5.62632e-08
2.5e-05 0 -5.62629e-08 -1.71772e-10 5.62632e-08
2.5e-05 0 -3.27845e-09 -1.14331e-10 3.28044e-09
2.5e-05 0 -3.27845e-09 -1.14331e-10 3.28044e-09
2.5e-05 0 1.71256e-09 -7.9822e-11 1.71442e-09
2.5e-05 0 1.71256e-09 -7.9822e-11 1.71442e-09
2.5e-05 0 1.84046e-08 -1.59149e-10 1.84053e-08
2.5e-05 0 1.84046e-08 -1.59149e-10 1.84053e-08
2.5e-05 0 1.99513e-08 -1.39308e-10 1.99517e-08
2.5e-05 0 1.99513e-08 -1.39308e-10 1.99517e-08
2.5e-05 0 -1.01459e-08 -1.12152e-10 1.01465e-08
2.5e-05 0 -1.01459e-08 -1.12152e-10 1.01465e-08
2.5e-05 0 -2.14325e-08 -1.94794e-11 2.14325e-08
2.5e-05 0 -2.14325e-08 -1.94794e-11 2.14325e-08
2.5e-05 0 2.96929e-10 9.52883e-13 2.96931e-10
2.5e-05 0 2.96929e-10 9.52883e-13 2.96931e-10
2.5e-05 0 4.22314e-09 1.026e-11 4.22315e-09
2.5e-05 0 4.22314e-09 1.026e-11 4.22315e-09
2.5e-05 0 2.63561e-09 -1.82284e-11 2.63568e-09
2.5e-05 0 2.63561e-09 -1.82284e-11 2.63568e-09
2.5e-05 0 2.21206e-09 -1.61653e-11 2.21212e-09
2.5e-05 0 2.21206e-09 -1.61653e-11 2.21212e-09
2.5e-05 0 -2.24127e-09 -2.17802e-12 2.24127e-09
2.5e-05 0 -2.24127e-09 -2.17802e-12 2.24127e-09
2.5e-05 0 -2.23984e-09 -3.27588e-14 2.23984e-09
2.5e-05 0 -2.23984e-09 -3.27588e-14 2.23984e-09
2.5e-05 0 8.32879e-10 1.27059e-12 8.32879e-10
2.5e-05 0 8.32879e-10 1.27059e-12 8.32879e-10
2.5e-05 0 9.30527e-10 1.51397e-12 9.30529e-10
2.5e-05 0 9.30527e-10 1.51397e-12 9.30529e-10
2.5e-05 0 1.89625e-10 -1.38823e-12 1.89631e-10
2.5e-05 0 1.89625e-10 -1.38823e-12 1.89631e-10
2.5e-05 0 1.56191e-10 -1.27416e-12 1.56196e-10
2.5e-05 0 1.56191e-10 -1.27416e-12 1.56196e-10
2.5e-05 0 1.6917e-11 6.53656e-13 1.69296e-11
2.5e-05 0 1.6917e-11 6.53656e-13 1.69296e-11
2.5e-05 0 2.41686e-11 7.1822e-13 2.41792e-11
2.5e-05 0 2.41686e-11 7.1822e-13 2.41792e-11
2.5e-05 0 2.10377e-10 4.30929e-13 2.10377e-10
2.5e-05 0 2.10377e-10 4.30929e-13 2.10377e-10
2.5e-05 0 2.12692e-10 4.1899e-13 2.12692e-10
2.5e-05 0 2.12692e-10 4.1899e-13 2.12692e-10
2.5e-05 0 1.48273e-10 2.79207e-13 1.48274e-10
2.5e-05 0 1.48273e-10 2.79207e-13 1.48274e-10
2.5e-05 0 1.46584e-10 2.80583e-13 1.46585e-10
2.5e-05 0 1.46584e-10 2.80583e-13 1.46585e-10
2.5e-05 0 1.51132e-10 4.027e-13 1.51133e-10
2.5e-05 0 1.51132e-10 4.027e-13 1.51133e-10
2.5e-05 0 1.51621e-10 4.03948e-13 1.51622e-10
2.5e-05 0 1.51621e-10 4.03948e-13 1.51622e-10
2.5e-05 0 1.5761e-10 3.68238e-13 1.5761e-10
2.5e-05 0 1.5761e-10 3.68238e-13 1.5761e-10
2.5e-05 0 1.57607e-10 3.66666e-13 1.57607e-10
2.5e-05 0 1.57607e-10 3.66666e-13 1.57607e-10
2.5e-05 0 1.54778e-10 3.65171e-13 1.54779e-10
2.5e-05 0 1.54778e-10 3.65171e-13 1.54779e-10
2.5e-05 0 1.54677e-10 3.65154e-13 1.54677e-10
2.5e-05 0 1.54677e-10 3.65154e-13 1.54677e-10
2.5e-05 0 1.55173e-10 3.6981e-13 1.55174e-10
2.5e-05 0 1.55173e-10 3.6981e-13 1.55174e-10
2.5e-05 0 1.55196e-10 3.698e-13 1.55196e-10
2.5e-05 0 1.55196e-10 3.698e-13 1.55196e-10
2.5e-05 0 1.55282e-10 3.67775e-13 1.55282e-10
2.5e-05 0 1.55282e-10 3.67775e-13 1.55282e-10
2.5e-05 0 1.55279e-10 3.67715e-13 1.55279e-10
2.5e-05 0 1.55279e-10 3.67715e-13 1.55279e-10
5e-05 0 3.22944e-10 3.49549e-13 3.22945e-10
5e-05 0 3.22944e-10 3.49549e-13 3.22945e-10
5e-05 0 -8.65188e-10 -5.96527e-10 1.0509e-09
5e-05 0 -8.65188e-10 -5.96527e-10 1.0509e-09
5e-05 0 1.08912e-09 6.67165e-12 1.08914e-09
5e-05 0 1.08912e-09 6.67165e-12 1.08914e-09
5e-05 0 9.73171e-10 7.03857e-12 9.73197e-10
5e-05 0 9.73171e-10 7.03857e-12 9.73197e-10
5e-05 0 6.40408e-10 4.16689e-12 6.40421e-10
5e-05 0 6.40408e-10 4.16689e-12 6.40421e-10
5e-05 0 5.55466e-10 1.19984e-12 5.55467e-10
5e-05 0 5.55466e-10 1.19984e-12 5.55467e-10
5e-05 0 5.16054e-10 1.32936e-12 5.16056e-10
5e-05 0 5.16054e-10 1.32936e-12 5.16056e-10
5e-05 0 3.63646e-10 1.32522e-12 3.63648e-10
5e-05 0 3.63646e-10 1.32522e-12 3.63648e-10
5e-05 0 3.76005e-10 1.31118e-12 3.76007e-10
5e-05 0 3.76005e-10 1.31118e-12 3.76007e-10
5e-05 0 4.23006e-10 1.38216e-12 4.23009e-10
5e-05 0 4.23006e-10 1.38216e-12 4.23009e-10
5e-05 0 4.38706e-10 1.19208e-12 4.38708e-10
5e-05 0 4.38706e-10 1.19208e-12 4.38708e-10
5e-05 0 4.5115e-10 9.62859e-13 4.51151e-10
5e-05 0 4.5115e-10 9.62859e-13 4.51151e-10
5e-05 0 4.3961e-10 9.20257e-13 4.39611e-10
5e-05 0 4.3961e-10 9.20257e-13 4.39611e-10
5e-05 0 4.36728e-10 8.47107e-13 4.36729e-10
5e-05 0 4.36728e-10 8.47107e-13 4.36729e-10
5e-05 0 4.40861e-10 8.29596e-13 4.40862e-10
5e-05 0 4.40861e-10 8.29596e-13 4.40862e-10
5e-05 0 4.37113e-10 7.87906e-13 4.37114e-10
5e-05 0 4.37113e-10 7.87906e-13 4.37114e-10
5e-05 0 4.36629e-10 7.86236e-13 4.3663e-10
5e-05 0 4.36629e-10 7.86236e-13 4.3663e-10
5e-05 0 4.3787e-10 7.85592e-13 4.3787e-10
5e-05 0 4.3787e-10 7.85592e-13 4.3787e-10
5e-05 0 4.3824e-10 7.82784e-13 4.38241e-10
5e-05 0 4.3824e-10 7.82784e-13 4.38241e-10
5e-05 0 4.37681e-10 7.8244e-13 4.37681e-10
5e-05 0 4.37681e-10 7.8244e-13 4.37681e-10
5e-05 0 4.37608e-10 7.79757e-13 4.37609e-10
5e-05 0 4.37608e-10 7.79757e-13 4.37609e-10
7.5e-05 0 7.3224e-10 9.23455e-14 7.3224e-10
7.5e-05 0 7.3224e-10 9.23455e-14 7.3224e-10
7.5e-05 0 7.50439e-10 2.74944e-10 7.99221e-10
7.5e-05 0 7.50439e-10 2.74944e-10 7.99221e-10
7.5e-05 0 5.05291e-10 2.38582e-11 5.05853e-10
7.5e-05 0 5.05291e-10 2.38582e-11 5.05853e-10
7.5e-05 0 4.68606e-10 1.07241e-11 4.68729e-10
7.5e-05 0 4.68606e-10 1.07241e-11 4.68729e-10
7.5e-05 0 9.09971e-10 3.29777e-12 9.09977e-10
7.5e-05 0 9.09971e-10 3.29777e-12 9.09977e-10
7.5e-05 0 9.84773e-10 7.57605e-13 9.84774e-10
7.5e-05 0 9.84773e-10 7.57605e-13 9.84774e-10
7.5e-05 0 8.33162e-10 5.72982e-13 8.33163e-10
7.5e-05 0 8.33162e-10 5.72982e-13 8.33163e-10
7.5e-05 0 7.9091e-10 -5.10384e-13 7.9091e-10
7.5e-05 0 7.9091e-10 -5.10384e-13 7.9091e-10
7.5e-05 0 8.27656e-10 6.5625e-14 8.27656e-10
7.5e-05 0 8.27656e-10 6.5625e-14 8.27656e-10
7.5e-05 0 8.31191e-10 6.95689e-13 8.31191e-10
7.5e-05 0 8.31191e-10 6.95689e-13 8.31191e-10
7.5e-05 0 8.02247e-10 5.6715e-13 8.02247e-10
7.5e-05 0 8.02247e-10 5.6715e-13 8.02247e-10
7.5e-05 0 8.02239e-10 5.99892e-13 8.02239e-10
7.5e-05 0 8.02239e-10 5.99892e-13 8.02239e-10
7.5e-05 0 8.11101e-10 5.46051e-13 8.11101e-10
7.5e-05 0 8.11101e-10 5.46051e-13 8.11101e-10
7.5e-05 0 8.13258e-10 5.23306e-13 8.13258e-10
7.5e-05 0 8.13258e-10 5.23306e-13 8.13258e-10
7.5e-05 0 8.10035e-10 5.27464e-13 8.10035e-10
7.5e-05 0 8.10035e-10 5.27464e-13 8.10035e-10
7.5e-05 0 8.08825e-10 5.21461e-13 8.08825e-10
7.5e-05 0 8.08825e-10 5.21461e-13 8.08825e-10
7.5e-05 0 8.11776e-10 5.16511e-13 8.11776e-10
7.5e-05 0 8.11776e-10 5.16511e-13 8.11776e-10
7.5e-05 0 8.1238e-10 5.16512e-13 8.1238e-10
7.5e-05 0 8.1238e-10 5.16512e-13 8.1238e-10
7.5e-05 0 8.11532e-10 5.15843e-13 8.11532e-10
7.5e-05 0 8.11532e-10 5.15843e-13 8.11532e-10
7.5e-05 0 8.11539e-10 5.1602e-13 8.11539e-10
7.5e-05 0 8.11539e-10 5.1602e-13 8.11539e-10
0.0001 0 1.20075e-09 -1.85686e-12 1.20075e-09
0.0001 0 1.20075e-09 -1.85686e-12 1.20075e-09
0.0001 0 -2.63261e-09 2.15449e-11 2.6327e-09
0.0001 0 -2.63261e-09 2.15449e-11 2.6327e-09
0.0001 0 1.25281e-09 -3.56101e-12 1.25282e-09
0.0001 0 1.25281e-09 -3.56101e-12 1.25282e-09
0.0001 0 1.01191e-09 4.92056e-14 1.01191e-09
0.0001 0 1.01191e-09 4.92056e-14 1.01191e-09
0.0001 0 1.12917e-09 -2.66447e-13 1.12917e-09
0.0001 0 1.12917e-09 -2.66447e-13 1.12917e-09
0.0001 0 1.23079e-09 -1.54983e-12 1.23079e-09
0.0001 0 1.23079e-09 -1.54983e-12 1.23079e-09
0.0001 0 1.3167e-09 -1.83531e-12 1.31671e-09
0.0001 0 1.3167e-09 -1.83531e-12 1.31671e-09
0.0001 0 1.2296e-09 -1.46803e-12 1.2296e-09
0.0001 0 1.2296e-09 -1.46803e-12 1.2296e-09
0.0001 0 1.20469e-09 -1.45506e-12 1.2047e-09
0.0001 0 1.20469e-09 -1.45506e-12 1.2047e-09
0.0001 0 1.25918e-09 -1.41095e-12 1.25918e-09
0.0001 0 1.25918e-09 -1.41095e-12 1.25918e-09
0.0001 0 1.26617e-09 -1.44818e-12 1.26617e-09
0.0001 0 1.26617e-09 -1.44818e-12 1.26617e-09
0.0001 0 1.24042e-09 -1.50489e-12 1.24042e-09
0.0001 0 1.24042e-09 -1.50489e-12 1.24042e-09
0.0001 0 1.24036e-09 -1.50118e-12 1.24036e-09
0.0001 0 1.24036e-09 -1.50118e-12 1.24036e-09
0.0001 0 1.24648e-09 -1.48897e-12 1.24648e-09
0.0001 0 1.24648e-09 -1.48897e-12 1.24648e-09
0.0001 0 1.24603e-09 -1.48922e-12 1.24603e-09
0.0001 0 1.24603e-09 -1.48922e-12 1.24603e-09
0.0001 0 1.24273e-09 -1.49127e-12 1.24273e-09
0.0001 0 1.24273e-09 -1.49127e-12 1.24273e-09
0.0001 0 1.24339e-09 -1.49059e-12 1.24339e-09
0.0001 0 1.24339e-09 -1.49059e-12 1.24339e-09
0.0001 0 1.24497e-09 -1.49039e-12 1.24497e-09
0.0001 0 1.24497e-09 -1.49039e-12 1.24497e-09
0.0001 0 1.24458e-09 -1.49029e-12 1.24458e-09
0.0001 0 1.24458e-09 -1.49029e-12 1.24458e-09
0.000125 0 1.68302e-09 -6.67625e-12 1.68303e-09
0.000125 0 1.68302e-09 -6.67625e-12 1.68303e-09
0.000125 0 1.15624e-09 -9.89364e-13 1.15624e-09
0.000125 0 1.15624e-09 -9.89364e-13 1.15624e-09
0.000125 0 1.80914e-09 -6.89781e-12 1.80915e-09
0.000125 0 1.80914e-09 -6.89781e-12 1.80915e-09
0.000125 0 1.81558e-09 -6.7742e-12 1.81559e-09
0.000125 0 1.81558e-09 -6.7742e-12 1.81559e-09
0.000125 0 1.71566e-09 -6.6449e-12 1.71568e-09
0.000125 0 1.71566e-09 -6.6449e-12 1.71568e-09
0.000125 0 1.69871e-09 -6.59273e-12 1.69872e-09
0.000125 0 1.69871e-09 -6.59273e-12 1.69872e-09
0.000125 0 1.71034e-09 -6.42044e-12 1.71035e-09
0.000125 0 1.71034e-09 -6.42044e-12 1.71035e-09
0.000125 0 1.70664e-09 -6.36463e-12 1.70665e-09
0.000125 0 1.70664e-09 -6.36463e-12 1.70665e-09
0.000125 0 1.70987e-09 -6.40717e-12 1.70988e-09
0.000125 0 1.70987e-09 -6.40717e-12 1.70988e-09
0.000125 0 1.71008e-09 -6.40948e-12 1.71009e-09
0.000125 0 1.71008e-09 -6.40948e-12 1.71009e-09
0.000125 0 1.70858e-09 -6.41242e-12 1.70859e-09
0.000125 0 1.70858e-09 -6.41242e-12 1.70859e-09
0.000125 0 1.70815e-09 -6.40939e-12 1.70817e-09
0.000125 0 1.70815e-09 -6.40939e-12 1.70817e-09
0.000125 0 1.70849e-09 -6.40564e-12 1.70851e-09
0.000125 0 1.70849e-09 -6.40564e-12 1.70851e-09
0.00015 0 2.16356e-09 -1.54325e-11 2.16361e-09
0.00015 0 2.16356e-09 -1.54325e-11 2.16361e-09
0.00015 0 1.40144e-09 -1.56757e-11 1.40153e-09
0.00015 0 1.40144e-09 -1.56757e-11 1.40153e-09
0.00015 0 1.3291e-09 -9.53997e-12 1.32914e-09
0.00015 0 1.3291e-09 -9.53997e-12 1.32914e-09
0.00015 0 2.32984e-09 -8.42944e-12 2.32986e-09
0.00015 0 2.32984e-09 -8.42944e-12 2.32986e-09
0.00015 0 2.41466e-09 -1.72808e-11 2.41472e-09
0.00015 0 2.41466e-09 -1.72808e-11 2.41472e-09
0.00015 0 2.25267e-09 -1.60713e-11 2.25273e-09
0.00015 0 2.25267e-09 -1.60713e-11 2.25273e-09
0.00015 0 2.21e-09 -1.55844e-11 2.21005e-09
0.00015 0 2.21e-09 -1.55844e-11 2.21005e-09
0.00015 0 2.30887e-09 -1.52921e-11 2.30892e-09
0.00015 0 2.30887e-09 -1.52921e-11 2.30892e-09
0.00015 0 2.22533e-09 -1.50914e-11 2.22538e-09
0.00015 0 2.22533e-09 -1.50914e-11 2.22538e-09
0.00015 0 2.16769e-09 -1.51936e-11 2.16774e-09
0.00015 0 2.16769e-09 -1.51936e-11 2.16774e-09
0.00015 0 2.31152e-09 -1.53925e-11 2.31158e-09
0.00015 0 2.31152e-09 -1.53925e-11 2.31158e-09
0.00015 0 2.31878e-09 -1.52458e-11 2.31883e-09
0.00015 0 2.31878e-09 -1.52458e-11 2.31883e-09
0.00015 0 2.1881e-09 -1.54621e-11 2.18816e-09
0.00015 0 2.1881e-09 -1.54621e-11 2.18816e-09
0.00015 0 2.18715e-09 -1.53915e-11 2.1872e-09
0.00015 0 2.18715e-09 -1.53915e-11 2.1872e-09
0.00015 0 2.14609e-09 -1.52192e-11 2.14614e-09
0.00015 0 2.14609e-09 -1.52192e-11 2.14614e-09
0.00015 0 2.1586e-09 -1.5237e-11 2.15866e-09
0.00015 0 2.1586e-09 -1.5237e-11 2.15866e-09
0.00015 0 2.18622e-09 -1.52593e-11 2.18627e-09
0.00015 0 2.18622e-09 -1.52593e-11 2.18627e-09
0.00015 0 2.18868e-09 -1.52736e-11 2.18874e-09
0.00015 0 2.18868e-09 -1.52736e-11 2.18874e-09
0.00015 0 2.18197e-09 -1.52808e-11 2.18202e-09
0.00015 0 2.18197e-09 -1.52808e-11 2.18202e-09
0.00015 0 2.18206e-09 -1.52753e-11 2.18211e-09
0.00015 0 2.18206e-09 -1.52753e-11 2.18211e-09
0.00015 0 2.18323e-09 -1.5266e-11 2.18328e-09
0.00015 0 2.18323e-09 -1.5266e-11 2.18328e-09
0.00015 0 2.18314e-09 -1.52611e-11 2.18319e-09
0.00015 0 2.18314e-09 -1.52611e-11 2.18319e-09
0.00015 0 2.18306e-09 -1.5269e-11 2.18312e-09
0.00015 0 2.18306e-09 -1.5269e-11 2.18312e-09
0.000175 0 2.64921e-09 -2.88419e-11 2.64937e-09
0.000175 0 2.64921e-09 -2.88419e-11 2.64937e-09
0.000175 0 4.48037e-09 -2.24808e-11 4.48042e-09
0.000175 0 4.48037e-09 -2.24808e-11 4.48042e-09
0.000175 0 4.19316e-09 -2.37587e-11 4.19323e-09
0.000175 0 4.19316e-09 -2.37587e-11 4.19323e-09
0.000175 0 1.58806e-09 -2.1183e-11 1.5882e-09
0.000175 0 1.58806e-09 -2.1183e-11 1.5882e-09
0.000175 0 2.09814e-09 -3.26949e-11 2.0984e-09
0.000175 0 2.09814e-09 -3.26949e-11 2.0984e-09
0.000175 0 2.83344e-09 -3.13583e-11 2.83361e-09
0.000175 0 2.83344e-09 -3.13583e-11 2.83361e-09
0.000175 0 2.84613e-09 -2.81451e-11 2.84627e-09
0.000175 0 2.84613e-09 -2.81451e-11 2.84627e-09
0.000175 0 2.76185e-09 -2.85056e-11 2.76199e-09
0.000175 0 2.76185e-09 -2.85056e-11 2.76199e-09
0.000175 0 2.54042e-09 -2.85174e-11 2.54058e-09
0.000175 0 2.54042e-09 -2.85174e-11 2.54058e-09
0.000175 0 2.58844e-09 -2.87174e-11 2.5886e-09
0.000175 0 2.58844e-09 -2.87174e-11 2.5886e-09
0.000175 0 2.59254e-09 -2.83431e-11 2.5927e-09
0.000175 0 2.59254e-09 -2.83431e-11 2.5927e-09
0.000175 0 2.62484e-09 -2.86023e-11 2.62499e-09
0.000175 0 2.62484e-09 -2.86023e-11 2.62499e-09
0.000175 0 2.66478e-09 -2.87531e-11 2.66493e-09
0.000175 0 2.66478e-09 -2.87531e-11 2.66493e-09
0.000175 0 2.65554e-09 -2.8742e-11 2.65569e-09
0.000175 0 2.65554e-09 -2.8742e-11 2.65569e-09
0.000175 0 2.65011e-09 -2.88355e-11 2.65026e-09
0.000175 0 2.65011e-09 -2.88355e-11 2.65026e-09
0.000175 0 2.64768e-09 -2.88027e-11 2.64784e-09
0.000175 0 2.64768e-09 -2.88027e-11 2.64784e-09
0.000175 0 2.65221e-09 -2.87763e-11 2.65237e-09
0.000175 0 2.65221e-09 -2.87763e-11 2.65237e-09
0.000175 0 2.65377e-09 -2.87771e-11 2.65392e-09
0.000175 0 2.65377e-09 -2.87771e-11 2.65392e-09
0.000175 0 2.65285e-09 -2.87798e-11 2.65301e-09
0.000175 0 2.65285e-09 -2.87798e-11 2.65301e-09
0.0002 0 3.11504e-09 -4.71945e-11 3.11539e-09
0.0002 0 3.11504e-09 -4.71945e-11 3.11539e-09
0.0002 0 3.25623e-10 -6.28875e-13 3.25624e-10
0.0002 0 3.25623e-10 -6.28875e-13 3.25624e-10
0.0002 0 3.49431e-09 -5.52518e-11 3.49474e-09
0.0002 0 3.49431e-09 -5.52518e-11 3.49474e-09
0.0002 0 1.30689e-09 -6.44773e-11 1.30848e-09
0.0002 0 1.30689e-09 -6.44773e-11 1.30848e-09
0.0002 0 2.7679e-09 -4.82358e-11 2.76832e-09
0.0002 0 2.7679e-09 -4.82358e-11 2.76832e-09
0.0002 0 3.40157e-09 -4.75861e-11 3.4019e-09
0.0002 0 3.40157e-09 -4.75861e-11 3.4019e-09
0.0002 0 3.14542e-09 -4.77961e-11 3.14578e-09
0.0002 0 3.14542e-09 -4.77961e-11 3.14578e-09
0.0002 0 3.12171e-09 -4.73145e-11 3.12207e-09
0.0002 0 3.12171e-09 -4.73145e-11 3.12207e-09
0.0002 0 3.12841e-09 -4.72712e-11 3.12876e-09
0.0002 0 3.12841e-09 -4.72712e-11 3.12876e-09
0.0002 0 3.10648e-09 -4.7208e-11 3.10684e-09
0.0002 0 3.10648e-09 -4.7208e-11 3.10684e-09
0.0002 0 3.09499e-09 -4.72443e-11 3.09535e-09
0.0002 0 3.09499e-09 -4.72443e-11 3.09535e-09
0.0002 0 3.10892e-09 -4.72277e-11 3.10928e-09
0.0002 0 3.10892e-09 -4.72277e-11 3.10928e-09
0.0002 0 3.10672e-09 -4.72115e-11 3.10708e-09
0.0002 0 3.10672e-09 -4.72115e-11 3.10708e-09
0.0002 0 3.10415e-09 -4.72117e-11 3.10451e-09
0.0002 0 3.10415e-09 -4.72117e-11 3.10451e-09
0.0002 0 3.10854e-09 -4.72073e-11 3.1089e-09
0.0002 0 3.10854e-09 -4.72073e-11 3.1089e-09
0.0002 0 3.10907e-09 -4.72114e-11 3.10943e-09
0.0002 0 3.10907e-09 -4.72114e-11 3.10943e-09
0.000225 0 3.52995e-09 -7.02961e-11 3.53065e-09
0.000225 0 3.52995e-09 -7.02961e-11 3.53065e-09
0.000225 0 7.4614e-09 -7.25886e-11 7.46175e-09
0.000225 0 7.4614e-09 -7.25886e-11 7.46175e-09
0.000225 0 3.35113e-09 -6.7724e-11 3.35181e-09
0.000225 0 3.35113e-09 -6.7724e-11 3.35181e-09
0.000225 0 3.56702e-09 -6.96223e-11 3.5677e-09
0.000225 0 3.56702e-09 -6.96223e-11 3.5677e-09
0.000225 0 4.23972e-09 -7.00829e-11 4.2403e-09
0.000225 0 4.23972e-09 -7.00829e-11 4.2403e-09
0.000225 0 4.03183e-09 -7.02615e-11 4.03245e-09
0.000225 0 4.03183e-09 -7.02615e-11 4.03245e-09
0.000225 0 3.47827e-09 -7.01135e-11 3.47898e-09
0.000225 0 3.47827e-09 -7.01135e-11 3.47898e-09
0.000225 0 3.4418e-09 -7.03642e-11 3.44252e-09
0.000225 0 3.4418e-09 -7.03642e-11 3.44252e-09
0.000225 0 3.56031e-09 -7.03564e-11 3.56101e-09
0.000225 0 3.56031e-09 -7.03564e-11 3.56101e-09
0.000225 0 3.53914e-09 -7.03651e-11 3.53984e-09
0.000225 0 3.53914e-09 -7.03651e-11 3.53984e-09
0.000225 0 3.54302e-09 -7.04419e-11 3.54372e-09
0.000225 0 3.54302e-09 -7.04419e-11 3.54372e-09
0.000225 0 3.54675e-09 -7.03805e-11 3.54745e-09
0.000225 0 3.54675e-09 -7.03805e-11 3.54745e-09
0.000225 0 3.55303e-09 -7.03909e-11 3.55373e-09
0.000225 0 3.55303e-09 -7.03909e-11 3.55373e-09
0.000225 0 3.55045e-09 -7.03709e-11 3.55114e-09
0.000225 0 3.55045e-09 -7.03709e-11 3.55114e-09
0.000225 0 3.54636e-09 -7.03759e-11 3.54706e-09
0.000225 0 3.54636e-09 -7.03759e-11 3.54706e-09
0.000225 0 3.54716e-09 -7.03839e-11 3.54786e-09
0.000225 0 3.54716e-09 -7.03839e-11 3.54786e-09
0.00025 0 3.93972e-09 -9.77384e-11 3.94093e-09
0.00025 0 3.93972e-09 -9.77384e-11 3.94093e-09
0.00025 0 1.14743e-08 -3.87889e-11 1.14744e-08
0.00025 0 1.14743e-08 -3.87889e-11 1.14744e-08
0.00025 0 5.85694e-09 -1.19134e-10 5.85815e-09
0.00025 0 5.85694e-09 -1.19134e-10 5.85815e-09
0.00025 0 3.49326e-09 -7.04577e-11 3.49397e-09
0.00025 0 3.49326e-09 -7.04577e-11 3.49397e-09
0.00025 0 4.04439e-09 -8.05901e-11 4.0452e-09
0.00025 0 4.04439e-09 -8.05901e-11 4.0452e-09
0.00025 0 3.95934e-09 -9.88789e-11 3.96058e-09
0.00025 0 3.95934e-09 -9.88789e-11 3.96058e-09
0.00025 0 4.34897e-09 -9.64239e-11 4.35004e-09
0.00025 0 4.34897e-09 -9.64239e-11 4.35004e-09
0.00025 0 4.72789e-09 -9.83322e-11 4.72891e-09
0.00025 0 4.72789e-09 -9.83322e-11 4.72891e-09
0.00025 0 4.18566e-09 -9.87102e-11 4.18683e-09
0.00025 0 4.18566e-09 -9.87102e-11 4.18683e-09
0.00025 0 4.07647e-09 -9.83703e-11 4.07766e-09
0.00025 0 4.07647e-09 -9.83703e-11 4.07766e-09
0.00025 0 3.98144e-09 -9.78477e-11 3.98264e-09
0.00025 0 3.98144e-09 -9.78477e-11 3.98264e-09
0.00025 0 3.96588e-09 -9.78646e-11 3.96708e-09
0.00025 0 3.96588e-09 -9.78646e-11 3.96708e-09
0.00025 0 3.95745e-09 -9.78464e-11 3.95866e-09
0.00025 0 3.95745e-09 -9.78464e-11 3.95866e-09
0.00025 0 3.96779e-09 -9.7802e-11 3.96899e-09
0.00025 0 3.96779e-09 -9.7802e-11 3.96899e-09
0.00025 0 3.97072e-09 -9.78243e-11 3.97192e-09
0.00025 0 3.97072e-09 -9.78243e-11 3.97192e-09
0.00025 0 3.97346e-09 -9.78349e-11 3.97467e-09
0.00025 0 3.97346e-09 -9.78349e-11 3.97467e-09
0.000275 0 4.38431e-09 -1.28849e-10 4.3862e-09
0.000275 0 4.38431e-09 -1.28849e-10 4.3862e-09
0.000275 0 9.17238e-09 -1.10935e-10 9.17305e-09
0.000275 0 9.17238e-09 -1.10935e-10 9.17305e-09
0.000275 0 6.20988e-09 -1.16914e-10 6.21098e-09
0.000275 0 6.20988e-09 -1.16914e-10 6.21098e-09
0.000275 0 5.45262e-09 -1.19052e-10 5.45391e-09
0.000275 0 5.45262e-09 -1.19052e-10 5.45391e-09
0.000275 0 4.02737e-09 -1.2863e-10 4.02943e-09
0.000275 0 4.02737e-09 -1.2863e-10 4.02943e-09
0.000275 0 3.8388e-09 -1.30635e-10 3.84102e-09
0.000275 0 3.8388e-09 -1.30635e-10 3.84102e-09
0.000275 0 4.32911e-09 -1.28524e-10 4.33101e-09
0.000275 0 4.32911e-09 -1.28524e-10 4.33101e-09
0.000275 0 4.49609e-09 -1.29025e-10 4.49794e-09
0.000275 0 4.49609e-09 -1.29025e-10 4.49794e-09
0.000275 0 4.42119e-09 -1.29503e-10 4.42309e-09
0.000275 0 4.42119e-09 -1.29503e-10 4.42309e-09
0.000275 0 4.4106e-09 -1.29096e-10 4.41249e-09
0.000275 0 4.4106e-09 -1.29096e-10 4.41249e-09
0.000275 0 4.3983e-09 -1.28975e-10 4.40019e-09
0.000275 0 4.3983e-09 -1.28975e-10 4.40019e-09
0.000275 0 4.38674e-09 -1.29012e-10 4.38863e-09
0.000275 0 4.38674e-09 -1.29012e-10 4.38863e-09
0.000275 0 4.38342e-09 -1.2895e-10 4.38532e-09
0.000275 0 4.38342e-09 -1.2895e-10 4.38532e-09
0.000275 0 4.38916e-09 -1.28953e-10 4.39106e-09
0.000275 0 4.38916e-09 -1.28953e-10 4.39106e-09
0.000275 0 4.38486e-09 -1.28963e-10 4.38676e-09
0.000275 0 4.38486e-09 -1.28963e-10 4.38676e-09
0.0003 0 4.73032e-09 -1.63247e-10 4.73314e-09
0.0003 0 4.73032e-09 -1.63247e-10 4.73314e-09
0.0003 0 -4.38749e-08 -3.10458e-10 4.3876e-08
0.0003 0 -4.38749e-08 -3.10458e-10 4.3876e-08
0.0003 0 6.10801e-09 -2.01714e-10 6.11134e-09
0.0003 0 6.10801e-09 -2.01714e-10 6.11134e-09
0.0003 0 4.55022e-09 -1.75619e-10 4.5536e-09
0.0003 0 4.55022e-09 -1.75619e-10 4.5536e-09
0.0003 0 8.25974e-09 -1.6828e-10 8.26146e-09
0.0003 0 8.25974e-09 -1.6828e-10 8.26146e-09
0.0003 0 6.16714e-09 -1.71845e-10 6.16953e-09
0.0003 0 6.16714e-09 -1.71845e-10 6.16953e-09
0.0003 0 4.27095e-09 -1.63748e-10 4.27409e-09
0.0003 0 4.27095e-09 -1.63748e-10 4.27409e-09
0.0003 0 4.52319e-09 -1.62516e-10 4.52611e-09
0.0003 0 4.52319e-09 -1.62516e-10 4.52611e-09
0.0003 0 4.59966e-09 -1.63189e-10 4.60255e-09
0.0003 0 4.59966e-09 -1.63189e-10 4.60255e-09
0.0003 0 4.81657e-09 -1.62975e-10 4.81933e-09
0.0003 0 4.81657e-09 -1.62975e-10 4.81933e-09
0.0003 0 4.77291e-09 -1.63531e-10 4.77571e-09
0.0003 0 4.77291e-09 -1.63531e-10 4.77571e-09
0.0003 0 4.80602e-09 -1.63525e-10 4.8088e-09
0.0003 0 4.80602e-09 -1.63525e-10 4.8088e-09
0.0003 0 4.80789e-09 -1.63489e-10 4.81067e-09
0.0003 0 4.80789e-09 -1.63489e-10 4.81067e-09
0.0003 0 4.80152e-09 -1.63467e-10 4.8043e-09
0.0003 0 4.80152e-09 -1.63467e-10 4.8043e-09
0.0003 0 4.80111e-09 -1.63425e-10 4.80389e-09
0.0003 0 4.80111e-09 -1.63425e-10 4.80389e-09
0.000325 0 5.17757e-09 -2.01518e-10 5.18149e-09
0.000325 0 5.17757e-09 -2.01518e-10 5.18149e-09
0.000325 0 -1.9169e-08 -9.98655e-11 1.91693e-08
0.000325 0 -1.9169e-08 -9.98655e-11 1.91693e-08
0.000325 0 -3.61079e-08 -1.07363e-10 3.61081e-08
0.000325 0 -3.61079e-08 -1.07363e-10 3.61081e-08
0.000325 0 -3.69335e-08 -1.55837e-10 3.69338e-08
0.000325 0 -3.69335e-08 -1.55837e-10 3.69338e-08
0.000325 0 1.24816e-08 -1.4833e-10 1.24825e-08
0.000325 0 1.24816e-08 -1.4833e-10 1.24825e-08
0.000325 0 5.64334e-09 -1.66209e-10 5.64578e-09
0.000325 0 5.64334e-09 -1.66209e-10 5.64578e-09
0.000325 0 5.11841e-09 -1.98262e-10 5.12225e-09
0.000325 0 5.11841e-09 -1.98262e-10 5.12225e-09
0.000325 0 4.67271e-09 -2.06571e-10 4.67727e-09
0.000325 0 4.67271e-09 -2.06571e-10 4.67727e-09
0.000325 0 5.92292e-09 -2.06887e-10 5.92653e-09
0.000325 0 5.92292e-09 -2.06887e-10 5.92653e-09
0.000325 0 5.53432e-09 -2.0411e-10 5.53809e-09
0.000325 0 5.53432e-09 -2.0411e-10 5.53809e-09
0.000325 0 5.55463e-09 -2.02097e-10 5.5583e-09
0.000325 0 5.55463e-09 -2.02097e-10 5.5583e-09
0.000325 0 5.34326e-09 -2.02029e-10 5.34708e-09
0.000325 0 5.34326e-09 -2.02029e-10 5.34708e-09
0.000325 0 5.25527e-09 -2.01453e-10 5.25913e-09
0.000325 0 5.25527e-09 -2.01453e-10 5.25913e-09
0.000325 0 5.22463e-09 -2.01266e-10 5.2285e-09
0.000325 0 5.22463e-09 -2.01266e-10 5.2285e-09
0.000325 0 5.22228e-09 -2.01565e-10 5.22617e-09
0.000325 0 5.22228e-09 -2.01565e-10 5.22617e-09
0.000325 0 5.24042e-09 -2.01633e-10 5.2443e-09
0.000325 0 5.24042e-09 -2.01633e-10 5.2443e-09
0.000325 0 5.23598e-09 -2.01704e-10 5.23986e-09
0.000325 0 5.23598e-09 -2.01704e-10 5.23986e-09
0.000325 0 5.2361e-09 -2.01672e-10 5.23999e-09
0.000325 0 5.2361e-09 -2.01672e-10 5.23999e-09
0.000325 0 5.22781e-09 -2.01665e-10 5.2317e-09
0.000325 0 5.22781e-09 -2.01665e-10 5.2317e-09
0.000325 0 5.22394e-09 -2.01667e-10 5.22783e-09
0.000325 0 5.22394e-09 -2.01667e-10 5.22783e-09
0.00035 0 5.64638e-09 -2.44779e-10 5.65169e-09
0.00035 0 5.64638e-09 -2.44779e-10 5.65169e-09
0.00035 0 7.86403e-08 -4.44021e-10 7.86415e-08
0.00035 0 7.86403e-08 -4.44021e-10 7.86415e-08
0.00035 0 1.19289e-08 -2.68035e-10 1.19319e-08
0.00035 0 1.19289e-08 -2.68035e-10 1.19319e-08
0.00035 0 -4.01166e-09 -2.2121e-10 4.01776e-09
0.00035 0 -4.01166e-09 -2.2121e-10 4.01776e-09
0.00035 0 3.50542e-09 -2.26012e-10 3.5127e-09
0.00035 0 3.50542e-09 -2.26012e-10 3.5127e-09
0.00035 0 4.07906e-09 -2.55405e-10 4.08705e-09
0.00035 0 4.07906e-09 -2.55405e-10 4.08705e-09
0.00035 0 5.04581e-09 -2.45549e-10 5.05178e-09
0.00035 0 5.04581e-09 -2.45549e-10 5.05178e-09
0.00035 0 5.27778e-09 -2.47134e-10 5.28356e-09
0.00035 0 5.27778e-09 -2.47134e-10 5.28356e-09
0.00035 0 5.8407e-09 -2.45134e-10 5.84584e-09
0.00035 0 5.8407e-09 -2.45134e-10 5.84584e-09
0.00035 0 5.66769e-09 -2.45156e-10 5.67299e-09
0.00035 0 5.66769e-09 -2.45156e-10 5.67299e-09
0.00035 0 5.61502e-09 -2.45256e-10 5.62038e-09
0.00035 0 5.61502e-09 -2.45256e-10 5.62038e-09
0.00035 0 5.65232e-09 -2.45178e-10 5.65764e-09
0.00035 0 5.65232e-09 -2.45178e-10 5.65764e-09
0.00035 0 5.67417e-09 -2.44922e-10 5.67946e-09
0.00035 0 5.67417e-09 -2.44922e-10 5.67946e-09
0.00035 0 5.66916e-09 -2.44901e-10 5.67445e-09
0.00035 0 5.66916e-09 -2.44901e-10 5.67445e-09
0.00035 0 5.67196e-09 -2.44928e-10 5.67725e-09
0.00035 0 5.67196e-09 -2.44928e-10 5.67725e-09
0.00035 0 5.67638e-09 -2.44906e-10 5.68166e-09
0.00035 0 5.67638e-09 -2.44906e-10 5.68166e-09
0.000375 0 6.15289e-09 -2.94705e-10 6.15994e-09
0.000375 0 6.15289e-09 -2.94705e-10 6.15994e-09
0.000375 0 9.08565e-09 -2.99797e-10 9.09059e-09
0.000375 0 9.08565e-09 -2.99797e-10 9.09059e-09
0.000375 0 1.18453e-08 -3.45063e-10 1.18503e-08
0.000375 0 1.18453e-08 -3.45063e-10 1.18503e-08
0.000375 0 1.15151e-08 -3.38208e-10 1.152e-08
0.000375 0 1.15151e-08 -3.38208e-10 1.152e-08
0.000375 0 7.25209e-09 -3.049e-10 7.2585e-09
0.000375 0 7.25209e-09 -3.049e-10 7.2585e-09
0.000375 0 2.56691e-09 -2.99909e-10 2.58437e-09
0.000375 0 2.56691e-09 -2.99909e-10 2.58437e-09
0.000375 0 4.04973e-09 -2.99514e-10 4.06079e-09
0.000375 0 4.04973e-09 -2.99514e-10 4.06079e-09
0.000375 0 5.74201e-09 -2.99539e-10 5.74981e-09
0.000375 0 5.74201e-09 -2.99539e-10 5.74981e-09
0.000375 0 5.962e-09 -2.98167e-10 5.96945e-09
0.000375 0 5.962e-09 -2.98167e-10 5.96945e-09
0.000375 0 6.08663e-09 -2.95269e-10 6.09378e-09
0.000375 0 6.08663e-09 -2.95269e-10 6.09378e-09
0.000375 0 6.18426e-09 -2.95134e-10 6.1913e-09
0.000375 0 6.18426e-09 -2.95134e-10 6.1913e-09
0.000375 0 6.19003e-09 -2.94788e-10 6.19704e-09
0.000375 0 6.19003e-09 -2.94788e-10 6.19704e-09
0.000375 0 6.13991e-09 -2.94827e-10 6.14699e-09
0.000375 0 6.13991e-09 -2.94827e-10 6.14699e-09
0.000375 0 6.15342e-09 -2.94862e-10 6.16048e-09
0.000375 0 6.15342e-09 -2.94862e-10 6.16048e-09
0.000375 0 6.16234e-09 -2.94844e-10 6.16939e-09
0.000375 0 6.16234e-09 -2.94844e-10 6.16939e-09
0.000375 0 6.16676e-09 -2.94862e-10 6.17381e-09
0.000375 0 6.16676e-09 -2.94862e-10 6.17381e-09
0.0004 0 6.67311e-09 -3.53334e-10 6.68246e-09
0.0004 0 6.67311e-09 -3.53334e-10 6.68246e-09
0.0004 0 -5.04665e-08 -4.4267e-10 5.04684e-08
0.0004 0 -5.04665e-08 -4.4267e-10 5.04684e-08
0.0004 0 -7.69171e-09 -3.01233e-10 7.69761e-09
0.0004 0 -7.69171e-09 -3.01233e-10 7.69761e-09
0.0004 0 -4.0946e-09 -3.28086e-10 4.10772e-09
0.0004 0 -4.0946e-09 -3.28086e-10 4.10772e-09
0.0004 0 5.25422e-09 -3.44368e-10 5.26549e-09
0.0004 0 5.25422e-09 -3.44368e-10 5.26549e-09
0.0004 0 8.14467e-09 -3.4854e-10 8.15213e-09
0.0004 0 8.14467e-09 -3.4854e-10 8.15213e-09
0.0004 0 6.16795e-09 -3.51554e-10 6.17796e-09
0.0004 0 6.16795e-09 -3.51554e-10 6.17796e-09
0.0004 0 7.03827e-09 -3.52876e-10 7.04711e-09
0.0004 0 7.03827e-09 -3.52876e-10 7.04711e-09
0.0004 0 6.59169e-09 -3.53901e-10 6.60119e-09
0.0004 0 6.59169e-09 -3.53901e-10 6.60119e-09
0.0004 0 6.59604e-09 -3.5424e-10 6.60554e-09
0.0004 0 6.59604e-09 -3.5424e-10 6.60554e-09
0.0004 0 6.67784e-09 -3.53243e-10 6.68718e-09
0.0004 0 6.67784e-09 -3.53243e-10 6.68718e-09
0.0004 0 6.70068e-09 -3.53446e-10 6.70999e-09
0.0004 0 6.70068e-09 -3.53446e-10 6.70999e-09
0.0004 0 6.69682e-09 -3.53631e-10 6.70615e-09
0.0004 0 6.69682e-09 -3.53631e-10 6.70615e-09
0.0004 0 6.69733e-09 -3.53622e-10 6.70666e-09
0.0004 0 6.69733e-09 -3.53622e-10 6.70666e-09
0.0004 0 6.70491e-09 -3.53535e-10 6.71422e-09
0.0004 0 6.70491e-09 -3.53535e-10 6.71422e-09
0.000425 0 7.34634e-09 -4.22953e-10 7.3585e-09
0.000425 0 7.34634e-09 -4.22953e-10 7.3585e-09
0.000425 0 4.72008e-09 -6.05528e-10 4.75877e-09
0.000425 0 4.72008e-09 -6.05528e-10 4.75877e-09
0.000425 0 -6.80301e-09 -2.7792e-10 6.80869e-09
0.000425 0 -6.80301e-09 -2.7792e-10 6.80869e-09
0.000425 0 1.36372e-08 -3.26689e-10 1.36411e-08
0.000425 0 1.36372e-08 -3.26689e-10 1.36411e-08
0.000425 0 1.29203e-08 -4.12601e-10 1.29269e-08
0.000425 0 1.29203e-08 -4.12601e-10 1.29269e-08
0.000425 0 7.91799e-09 -4.16742e-10 7.92895e-09
0.000425 0 7.91799e-09 -4.16742e-10 7.92895e-09
0.000425 0 6.82474e-09 -4.23739e-10 6.83788e-09
0.000425 0 6.82474e-09 -4.23739e-10 6.83788e-09
0.000425 0 7.02195e-09 -4.24051e-10 7.03475e-09
0.000425 0 7.02195e-09 -4.24051e-10 7.03475e-09
0.000425 0 7.05355e-09 -4.23751e-10 7.06627e-09
0.000425 0 7.05355e-09 -4.23751e-10 7.06627e-09
0.000425 0 7.19075e-09 -4.22797e-10 7.20317e-09
0.000425 0 7.19075e-09 -4.22797e-10 7.20317e-09
0.000425 0 7.25822e-09 -4.23192e-10 7.27054e-09
0.000425 0 7.25822e-09 -4.23192e-10 7.27054e-09
0.000425 0 7.28022e-09 -4.23101e-10 7.2925e-09
0.000425 0 7.28022e-09 -4.23101e-10 7.2925e-09
0.000425 0 7.28868e-09 -4.23165e-10 7.30095e-09
0.000425 0 7.28868e-09 -4.23165e-10 7.30095e-09
0.000425 0 7.29528e-09 -4.23204e-10 7.30755e-09
0.000425 0 7.29528e-09 -4.23204e-10 7.30755e-09
0.00045 0 7.96088e-09 -5.0625e-10 7.97696e-09
0.00045 0 7.96088e-09 -5.0625e-10 7.97696e-09
0.00045 0 9.56533e-09 -7.34362e-10 9.59348e-09
0.00045 0 9.56533e-09 -7.34362e-10 9.59348e-09
0.00045 0 1.91957e-08 -5.19795e-10 1.92027e-08
0.00045 0 1.91957e-08 -5.19795e-10 1.92027e-08
0.00045 0 1.38212e-08 -4.98475e-10 1.38302e-08
0.00045 0 1.38212e-08 -4.98475e-10 1.38302e-08
0.00045 0 8.56107e-09 -4.89804e-10 8.57507e-09
0.00045 0 8.56107e-09 -4.89804e-10 8.57507e-09
0.00045 0 8.73503e-09 -5.02856e-10 8.74949e-09