# Force       
# CofR        : (5.000000e-01 1.000000e-01 0.000000e+00)
#
# Time        	(total_x total_y total_z)	(pressure_x pressure_y pressure_z)	(viscous_x viscous_y viscous_z)
0.0001        	(8.824541e-03 8.824540e-03 -9.672691e-08)	(8.825402e-03 8.825402e-03 -2.273923e-05)	(-8.616695e-07 -8.616779e-07 2.264250e-05)
0.0002        	(1.334722e-02 1.334722e-02 -1.487994e-05)	(1.334841e-02 1.334842e-02 -6.026232e-05)	(-1.197363e-06 -1.197383e-06 4.538238e-05)
0.0003        	(1.575817e-02 1.575816e-02 -3.930364e-05)	(1.575963e-02 1.575962e-02 -1.075902e-04)	(-1.459964e-06 -1.459990e-06 6.828661e-05)
0.0004        	(1.759735e-02 1.759735e-02 -7.086646e-05)	(1.759897e-02 1.759897e-02 -1.624855e-04)	(-1.616456e-06 -1.616482e-06 9.161902e-05)
0.0005        	(1.969725e-02 1.969725e-02 -1.053902e-04)	(1.969892e-02 1.969893e-02 -2.209335e-04)	(-1.677768e-06 -1.677799e-06 1.155432e-04)
0.0006        	(2.224756e-02 2.224754e-02 -1.391035e-04)	(2.224923e-02 2.224921e-02 -2.791339e-04)	(-1.663981e-06 -1.663992e-06 1.400303e-04)
0.0007        	(2.513546e-02 2.513549e-02 -1.698449e-04)	(2.513706e-02 2.513709e-02 -3.348305e-04)	(-1.596644e-06 -1.596679e-06 1.649855e-04)
0.0008        	(2.820794e-02 2.820792e-02 -1.966308e-04)	(2.820943e-02 2.820942e-02 -3.869516e-04)	(-1.494954e-06 -1.494990e-06 1.903207e-04)
0.0009        	(3.137700e-02 3.137694e-02 -2.189459e-04)	(3.137837e-02 3.137831e-02 -4.349076e-04)	(-1.374834e-06 -1.374775e-06 2.159618e-04)
0.001         	(3.462121e-02 3.462125e-02 -2.364592e-04)	(3.462246e-02 3.462250e-02 -4.782988e-04)	(-1.248702e-06 -1.248588e-06 2.418396e-04)
0.0011        	(3.794835e-02 3.794836e-02 -2.490997e-04)	(3.794947e-02 3.794948e-02 -5.169856e-04)	(-1.125629e-06 -1.125569e-06 2.678859e-04)
0.0012        	(4.136312e-02 4.136323e-02 -2.568001e-04)	(4.136413e-02 4.136424e-02 -5.508353e-04)	(-1.012499e-06 -1.012597e-06 2.940353e-04)
0.0013        	(4.486008e-02 4.486002e-02 -2.597429e-04)	(4.486100e-02 4.486093e-02 -5.799689e-04)	(-9.139823e-07 -9.141016e-07 3.202261e-04)
0.0014        	(4.842641e-02 4.842650e-02 -2.581164e-04)	(4.842724e-02 4.842733e-02 -6.045261e-04)	(-8.340150e-07 -8.342965e-07 3.464097e-04)
0.0015        	(5.205049e-02 5.205043e-02 -2.524903e-04)	(5.205126e-02 5.205121e-02 -6.250331e-04)	(-7.726403e-07 -7.728953e-07 3.725428e-04)
0.0016        	(5.572257e-02 5.572254e-02 -2.434624e-04)	(5.572330e-02 5.572327e-02 -6.420506e-04)	(-7.292045e-07 -7.293369e-07 3.985882e-04)
0.0017        	(5.942838e-02 5.942842e-02 -2.311124e-04)	(5.942908e-02 5.942912e-02 -6.556216e-04)	(-7.029402e-07 -7.030846e-07 4.245091e-04)
0.0018        	(6.315976e-02 6.315982e-02 -2.159048e-04)	(6.316045e-02 6.316051e-02 -6.661754e-04)	(-6.923967e-07 -6.925959e-07 4.502706e-04)
0.0019        	(6.691890e-02 6.691876e-02 -1.986916e-04)	(6.691959e-02 6.691946e-02 -6.745298e-04)	(-6.941148e-07 -6.941690e-07 4.758382e-04)
0.002         	(7.069482e-02 7.069486e-02 -1.797240e-04)	(7.069553e-02 7.069556e-02 -6.808991e-04)	(-7.068649e-07 -7.067965e-07 5.011751e-04)
0.0021        	(7.447338e-02 7.447340e-02 -1.587394e-04)	(7.447410e-02 7.447413e-02 -6.849789e-04)	(-7.289727e-07 -7.289789e-07 5.262395e-04)
0.0022        	(7.826053e-02 7.826045e-02 -1.364831e-04)	(7.826129e-02 7.826121e-02 -6.874676e-04)	(-7.573367e-07 -7.573017e-07 5.509845e-04)
0.0023        	(8.204163e-02 8.204156e-02 -1.130837e-04)	(8.204242e-02 8.204235e-02 -6.884384e-04)	(-7.903222e-07 -7.901216e-07 5.753547e-04)
0.0024        	(8.581597e-02 8.581599e-02 -8.890518e-05)	(8.581679e-02 8.581682e-02 -6.881865e-04)	(-8.253701e-07 -8.251791e-07 5.992813e-04)
0.0025        	(8.958896e-02 8.958894e-02 -6.456640e-05)	(8.958982e-02 8.958980e-02 -6.872511e-04)	(-8.612865e-07 -8.611060e-07 6.226847e-04)
0.0026        	(9.334461e-02 9.334472e-02 -4.009414e-05)	(9.334551e-02 9.334562e-02 -6.855685e-04)	(-8.961856e-07 -8.960637e-07 6.454743e-04)
0.0027        	(9.708933e-02 9.708926e-02 -1.596228e-05)	(9.709026e-02 9.709019e-02 -6.835141e-04)	(-9.298113e-07 -9.296916e-07 6.675518e-04)
0.0028        	(1.008193e-01 1.008192e-01 7.700931e-06)	(1.008203e-01 1.008202e-01 -6.811150e-04)	(-9.612279e-07 -9.609107e-07 6.888159e-04)
0.0029        	(1.045304e-01 1.045306e-01 3.064383e-05)	(1.045314e-01 1.045316e-01 -6.785245e-04)	(-9.896069e-07 -9.894320e-07 7.091683e-04)
0.003         	(1.082227e-01 1.082228e-01 5.267166e-05)	(1.082237e-01 1.082238e-01 -6.758464e-04)	(-1.014483e-06 -1.014527e-06 7.285181e-04)
0.0031        	(1.030758e-01 1.030759e-01 5.143492e-04)	(1.030766e-01 1.030767e-01 -2.093225e-04)	(-7.929580e-07 -7.932604e-07 7.236717e-04)
0.0032        	(1.021190e-01 1.021190e-01 6.612761e-04)	(1.021200e-01 1.021199e-01 -5.612381e-05)	(-9.401979e-07 -9.406408e-07 7.173999e-04)
0.0033        	(1.032644e-01 1.032641e-01 6.871861e-04)	(1.032654e-01 1.032651e-01 -2.261022e-05)	(-1.003214e-06 -1.003396e-06 7.097963e-04)
0.0034        	(1.049993e-01 1.049999e-01 6.849651e-04)	(1.050003e-01 1.050009e-01 -1.569010e-05)	(-1.035731e-06 -1.036542e-06 7.006552e-04)
0.0035        	(1.064717e-01 1.064713e-01 6.839528e-04)	(1.064728e-01 1.064723e-01 -5.893665e-06)	(-1.047175e-06 -1.047847e-06 6.898464e-04)
0.0036        	(1.074750e-01 1.074746e-01 6.846623e-04)	(1.074760e-01 1.074757e-01 7.231200e-06)	(-1.034562e-06 -1.034511e-06 6.774311e-04)
0.0037        	(1.081036e-01 1.081040e-01 6.823200e-04)	(1.081046e-01 1.081050e-01 1.876952e-05)	(-9.961961e-07 -9.963489e-07 6.635505e-04)
0.0038        	(1.085180e-01 1.085178e-01 6.744813e-04)	(1.085189e-01 1.085187e-01 2.611938e-05)	(-9.366413e-07 -9.367450e-07 6.483619e-04)
0.0039        	(1.088374e-01 1.088374e-01 6.614602e-04)	(1.088383e-01 1.088383e-01 2.944432e-05)	(-8.583803e-07 -8.583723e-07 6.320159e-04)
0.004         	(1.090744e-01 1.090743e-01 6.449491e-04)	(1.090752e-01 1.090750e-01 3.028663e-05)	(-7.670569e-07 -7.668930e-07 6.146624e-04)
0.0041        	(1.092000e-01 1.092001e-01 6.263492e-04)	(1.092007e-01 1.092008e-01 2.989307e-05)	(-6.686612e-07 -6.686258e-07 5.964562e-04)
0.0042        	(1.092522e-01 1.092520e-01 6.064142e-04)	(1.092527e-01 1.092526e-01 2.886356e-05)	(-5.684396e-07 -5.681678e-07 5.775507e-04)
0.0043        	(1.092297e-01 1.092296e-01 5.858020e-04)	(1.092302e-01 1.092301e-01 2.771073e-05)	(-4.716937e-07 -4.713641e-07 5.580912e-04)
0.0044        	(1.091020e-01 1.091021e-01 5.649818e-04)	(1.091024e-01 1.091025e-01 2.676802e-05)	(-3.811944e-07 -3.810004e-07 5.382138e-04)
0.0045        	(1.089157e-01 1.089157e-01 5.439630e-04)	(1.089160e-01 1.089160e-01 2.591522e-05)	(-3.008318e-07 -3.006618e-07 5.180478e-04)
0.0046        	(1.087071e-01 1.087072e-01 5.227562e-04)	(1.087073e-01 1.087075e-01 2.504655e-05)	(-2.315919e-07 -2.316505e-07 4.977096e-04)
0.0047        	(1.084477e-01 1.084475e-01 5.016716e-04)	(1.084479e-01 1.084476e-01 2.436313e-05)	(-1.735923e-07 -1.733787e-07 4.773085e-04)
0.0048        	(1.081452e-01 1.081453e-01 4.807822e-04)	(1.081453e-01 1.081455e-01 2.383050e-05)	(-1.265192e-07 -1.264376e-07 4.569517e-04)
0.0049        	(1.078487e-01 1.078486e-01 4.600070e-04)	(1.078488e-01 1.078487e-01 2.326391e-05)	(-9.036096e-08 -9.031516e-08 4.367431e-04)
0.005         	(1.075308e-01 1.075307e-01 4.395040e-04)	(1.075308e-01 1.075308e-01 2.271487e-05)	(-6.565498e-08 -6.547405e-08 4.167891e-04)
0.0051        	(1.071785e-01 1.071789e-01 4.194053e-04)	(1.071785e-01 1.071789e-01 2.220218e-05)	(-5.125214e-08 -5.155783e-08 3.972032e-04)
0.0052        	(1.068455e-01 1.068452e-01 3.995830e-04)	(1.068456e-01 1.068452e-01 2.147852e-05)	(-4.577062e-08 -4.590881e-08 3.781044e-04)
0.0053        	(1.065132e-01 1.065135e-01 3.801908e-04)	(1.065132e-01 1.065136e-01 2.056977e-05)	(-4.892643e-08 -4.933064e-08 3.596210e-04)
0.0054        	(1.061534e-01 1.061534e-01 3.614081e-04)	(1.061534e-01 1.061535e-01 1.951524e-05)	(-5.856819e-08 -5.926115e-08 3.418928e-04)
0.0055        	(1.058041e-01 1.058036e-01 3.431862e-04)	(1.058041e-01 1.058037e-01 1.811465e-05)	(-7.536006e-08 -7.554127e-08 3.250716e-04)
0.0056        	(1.054691e-01 1.054692e-01 3.257095e-04)	(1.054692e-01 1.054693e-01 1.639402e-05)	(-9.791631e-08 -9.790047e-08 3.093155e-04)
0.0057        	(1.051217e-01 1.051219e-01 3.092726e-04)	(1.051218e-01 1.051220e-01 1.448469e-05)	(-1.257866e-07 -1.259299e-07 2.947879e-04)
0.0058        	(1.047773e-01 1.047772e-01 2.940695e-04)	(1.047774e-01 1.047773e-01 1.241924e-05)	(-1.562792e-07 -1.563370e-07 2.816502e-04)
0.0059        	(1.044493e-01 1.044495e-01 2.801531e-04)	(1.044495e-01 1.044496e-01 1.009817e-05)	(-1.897466e-07 -1.898656e-07 2.700549e-04)
0.006         	(1.041179e-01 1.041176e-01 2.678291e-04)	(1.041182e-01 1.041178e-01 7.688429e-06)	(-2.249301e-07 -2.247740e-07 2.601407e-04)
0.0061        	(1.037710e-01 1.037712e-01 2.573189e-04)	(1.037713e-01 1.037715e-01 5.294102e-06)	(-2.616661e-07 -2.613934e-07 2.520248e-04)
0.0062        	(1.034464e-01 1.034464e-01 2.485823e-04)	(1.034467e-01 1.034467e-01 2.787148e-06)	(-2.984392e-07 -2.982409e-07 2.457951e-04)
0.0063        	(1.031230e-01 1.031228e-01 2.417792e-04)	(1.031233e-01 1.031232e-01 2.708622e-07)	(-3.356851e-07 -3.352857e-07 2.415083e-04)
0.0064        	(1.027763e-01 1.027763e-01 2.370215e-04)	(1.027766e-01 1.027767e-01 -2.164945e-06)	(-3.731251e-07 -3.727259e-07 2.391864e-04)
0.0065        	(1.024331e-01 1.024333e-01 2.341558e-04)	(1.024335e-01 1.024337e-01 -4.660777e-06)	(-4.097777e-07 -4.097827e-07 2.388165e-04)
0.0066        	(1.020940e-01 1.020936e-01 2.331856e-04)	(1.020945e-01 1.020940e-01 -7.165690e-06)	(-4.472488e-07 -4.469772e-07 2.403513e-04)
0.0067        	(1.017324e-01 1.017328e-01 2.340832e-04)	(1.017329e-01 1.017332e-01 -9.630679e-06)	(-4.831316e-07 -4.830972e-07 2.437138e-04)
0.0068        	(1.013507e-01 1.013507e-01 2.367363e-04)	(1.013512e-01 1.013512e-01 -1.206531e-05)	(-5.170844e-07 -5.174293e-07 2.488016e-04)
0.0069        	(1.009657e-01 1.009657e-01 2.409529e-04)	(1.009663e-01 1.009663e-01 -1.453632e-05)	(-5.501973e-07 -5.506763e-07 2.554892e-04)
0.007         	(1.005597e-01 1.005597e-01 2.466939e-04)	(1.005603e-01 1.005603e-01 -1.694268e-05)	(-5.795003e-07 -5.801454e-07 2.636366e-04)
0.0071        	(1.001227e-01 1.001227e-01 2.539161e-04)	(1.001233e-01 1.001233e-01 -1.917660e-05)	(-6.040756e-07 -6.046794e-07 2.730927e-04)
0.0072        	(9.965680e-02 9.965659e-02 2.623569e-04)	(9.965742e-02 9.965721e-02 -2.134299e-05)	(-6.241535e-07 -6.243854e-07 2.836999e-04)
0.0073        	(9.917361e-02 9.917404e-02 2.720121e-04)	(9.917424e-02 9.917467e-02 -2.328547e-05)	(-6.351138e-07 -6.357236e-07 2.952976e-04)
0.0074        	(9.865309e-02 9.865290e-02 2.827919e-04)	(9.865373e-02 9.865354e-02 -2.493361e-05)	(-6.383205e-07 -6.389480e-07 3.077255e-04)
0.0075        	(9.808446e-02 9.808436e-02 2.945546e-04)	(9.808509e-02 9.808499e-02 -2.627191e-05)	(-6.313378e-07 -6.316985e-07 3.208265e-04)
0.0076        	(9.748403e-02 9.748406e-02 3.072232e-04)	(9.748464e-02 9.748467e-02 -2.722309e-05)	(-6.123232e-07 -6.127327e-07 3.344463e-04)
0.0077        	(9.684238e-02 9.684211e-02 3.206015e-04)	(9.684296e-02 9.684269e-02 -2.783395e-05)	(-5.829837e-07 -5.830191e-07 3.484354e-04)
0.0078        	(9.615128e-02 9.615135e-02 3.346282e-04)	(9.615182e-02 9.615189e-02 -2.802110e-05)	(-5.414358e-07 -5.412766e-07 3.626493e-04)
0.0079        	(9.540625e-02 9.540641e-02 3.491588e-04)	(9.540673e-02 9.540690e-02 -2.778914e-05)	(-4.883286e-07 -4.884334e-07 3.769479e-04)
0.008         	(9.460207e-02 9.460199e-02 3.639198e-04)	(9.460249e-02 9.460241e-02 -2.727676e-05)	(-4.262853e-07 -4.264294e-07 3.911965e-04)
0.0081        	(9.374880e-02 9.374893e-02 3.788191e-04)	(9.374915e-02 9.374928e-02 -2.644510e-05)	(-3.543284e-07 -3.547165e-07 4.052642e-04)
0.0082        	(9.283081e-02 9.283094e-02 3.936556e-04)	(9.283108e-02 9.283122e-02 -2.536868e-05)	(-2.760696e-07 -2.768306e-07 4.190243e-04)
0.0083        	(9.183974e-02 9.183964e-02 4.082390e-04)	(9.183993e-02 9.183984e-02 -2.411550e-05)	(-1.932867e-07 -1.940878e-07 4.323545e-04)
0.0084        	(9.077957e-02 9.077964e-02 4.223914e-04)	(9.077968e-02 9.077975e-02 -2.274584e-05)	(-1.071655e-07 -1.081592e-07 4.451373e-04)
0.0085        	(8.964177e-02 8.964177e-02 4.359038e-04)	(8.964179e-02 8.964179e-02 -2.135718e-05)	(-2.112083e-08 -2.219575e-08 4.572609e-04)
0.0086        	(8.843078e-02 8.843055e-02 4.487083e-04)	(8.843072e-02 8.843048e-02 -1.991110e-05)	(6.433643e-08 6.366068e-08 4.686194e-04)
0.0087        	(8.712920e-02 8.712961e-02 4.606191e-04)	(8.712906e-02 8.712946e-02 -1.849508e-05)	(1.464988e-07 1.455364e-07 4.791142e-04)
0.0088        	(8.572949e-02 8.572929e-02 4.714916e-04)	(8.572926e-02 8.572907e-02 -1.716497e-05)	(2.232759e-07 2.223352e-07 4.886566e-04)
0.0089        	(8.424657e-02 8.424649e-02 4.813065e-04)	(8.424628e-02 8.424620e-02 -1.586160e-05)	(2.946452e-07 2.939741e-07 4.971681e-04)
0.009         	(8.266106e-02 8.266118e-02 4.899057e-04)	(8.266070e-02 8.266082e-02 -1.467658e-05)	(3.570388e-07 3.563432e-07 5.045823e-04)
0.0091        	(8.096509e-02 8.096491e-02 4.972868e-04)	(8.096468e-02 8.096450e-02 -1.356023e-05)	(4.112507e-07 4.107430e-07 5.108470e-04)
0.0092        	(7.916330e-02 7.916347e-02 5.034076e-04)	(7.916284e-02 7.916302e-02 -1.251758e-05)	(4.561967e-07 4.556576e-07 5.159252e-04)
0.0093        	(7.724639e-02 7.724619e-02 5.081809e-04)	(7.724590e-02 7.724570e-02 -1.161395e-05)	(4.907911e-07 4.904823e-07 5.197949e-04)
0.0094        	(7.521473e-02 7.521478e-02 5.116867e-04)	(7.521421e-02 7.521426e-02 -1.076502e-05)	(5.164660e-07 5.162733e-07 5.224517e-04)
0.0095        	(7.305117e-02 7.305117e-02 5.139035e-04)	(7.305063e-02 7.305063e-02 -1.000395e-05)	(5.315267e-07 5.313855e-07 5.239075e-04)
0.0096        	(7.076223e-02 7.076231e-02 5.148313e-04)	(7.076169e-02 7.076177e-02 -9.358726e-06)	(5.370953e-07 5.369300e-07 5.241900e-04)
0.0097        	(6.834775e-02 6.834748e-02 5.145637e-04)	(6.834721e-02 6.834695e-02 -8.779290e-06)	(5.343831e-07 5.345116e-07 5.233430e-04)
0.0098        	(6.579136e-02 6.579180e-02 5.131258e-04)	(6.579083e-02 6.579128e-02 -8.298497e-06)	(5.242998e-07 5.241014e-07 5.214243e-04)
0.0099        	(6.310147e-02 6.310137e-02 5.106139e-04)	(6.310096e-02 6.310087e-02 -7.890541e-06)	(5.098469e-07 5.093553e-07 5.185044e-04)
0.01          	(6.026701e-02 6.026695e-02 5.071533e-04)	(6.026652e-02 6.026645e-02 -7.511775e-06)	(4.919348e-07 4.915492e-07 5.146651e-04)
0.0101        	(5.728898e-02 5.728893e-02 5.027869e-04)	(5.728851e-02 5.728845e-02 -7.209843e-06)	(4.740700e-07 4.738153e-07 5.099967e-04)
0.0102        	(5.416999e-02 5.417007e-02 4.976528e-04)	(5.416953e-02 5.416961e-02 -6.943721e-06)	(4.590623e-07 4.587598e-07 5.045965e-04)
0.0103        	(5.090251e-02 5.090251e-02 4.918684e-04)	(5.090206e-02 5.090206e-02 -6.697405e-06)	(4.494821e-07 4.491964e-07 4.985658e-04)
0.0104        	(4.749107e-02 4.749108e-02 4.855173e-04)	(4.749062e-02 4.749063e-02 -6.491569e-06)	(4.482323e-07 4.479477e-07 4.920088e-04)
0.0105        	(4.393684e-02 4.393685e-02 4.787528e-04)	(4.393638e-02 4.393639e-02 -6.279107e-06)	(4.586339e-07 4.583744e-07 4.850319e-04)
0.0106        	(4.023543e-02 4.023543e-02 4.716008e-04)	(4.023495e-02 4.023495e-02 -6.137585e-06)	(4.830640e-07 4.828187e-07 4.777384e-04)
0.0107        	(3.639366e-02 3.639365e-02 4.641400e-04)	(3.639313e-02 3.639312e-02 -6.090138e-06)	(5.251623e-07 5.249581e-07 4.702302e-04)
0.0108        	(3.241574e-02 3.241573e-02 4.566727e-04)	(3.241515e-02 3.241514e-02 -5.939184e-06)	(5.878774e-07 5.877086e-07 4.626119e-04)
0.0109        	(2.830456e-02 2.830459e-02 4.492280e-04)	(2.830389e-02 2.830392e-02 -5.757152e-06)	(6.743216e-07 6.740724e-07 4.549852e-04)
0.011         	(2.406511e-02 2.406507e-02 4.419320e-04)	(2.406432e-02 2.406429e-02 -5.516700e-06)	(7.865974e-07 7.864039e-07 4.474487e-04)
0.0111        	(1.970349e-02 1.970347e-02 4.348527e-04)	(1.970256e-02 1.970255e-02 -5.241416e-06)	(9.254597e-07 9.252853e-07 4.400942e-04)
0.0112        	(1.522704e-02 1.522704e-02 4.280576e-04)	(1.522595e-02 1.522595e-02 -4.947957e-06)	(1.091147e-06 1.091008e-06 4.330056e-04)
0.0113        	(1.064574e-02 1.064570e-02 4.216366e-04)	(1.064446e-02 1.064442e-02 -4.623126e-06)	(1.283218e-06 1.283136e-06 4.262597e-04)
0.0114        	(5.972778e-03 5.972755e-03 4.156814e-04)	(5.971278e-03 5.971255e-03 -4.244973e-06)	(1.500068e-06 1.500092e-06 4.199263e-04)
0.0115        	(1.210650e-03 1.210674e-03 4.102008e-04)	(1.208910e-03 1.208935e-03 -3.865277e-06)	(1.739598e-06 1.739606e-06 4.140661e-04)
0.0116        	(-3.621847e-03 -3.621890e-03 4.052808e-04)	(-3.623846e-03 -3.623889e-03 -3.450654e-06)	(1.998691e-06 1.998797e-06 4.087315e-04)
0.0117        	(-8.517447e-03 -8.517470e-03 4.009510e-04)	(-8.519720e-03 -8.519743e-03 -3.014090e-06)	(2.273329e-06 2.273527e-06 4.039651e-04)
0.0118        	(-1.346086e-02 -1.346081e-02 3.972562e-04)	(-1.346342e-02 -1.346336e-02 -2.543810e-06)	(2.558651e-06 2.558809e-06 3.998000e-04)
0.0119        	(-1.843626e-02 -1.843633e-02 3.942054e-04)	(-1.843911e-02 -1.843918e-02 -2.053550e-06)	(2.849367e-06 2.849584e-06 3.962589e-04)
0.012         	(-2.343137e-02 -2.343136e-02 3.918016e-04)	(-2.343451e-02 -2.343450e-02 -1.552312e-06)	(3.138970e-06 3.139248e-06 3.933539e-04)
0.0121        	(-2.842930e-02 -2.842926e-02 3.900619e-04)	(-2.843272e-02 -2.843268e-02 -1.024128e-06)	(3.421924e-06 3.422170e-06 3.910860e-04)
0.0122        	(-3.341552e-02 -3.341556e-02 3.889540e-04)	(-3.341921e-02 -3.341925e-02 -4.909586e-07)	(3.690577e-06 3.690880e-06 3.894449e-04)
0.0123        	(-3.837264e-02 -3.837258e-02 3.884660e-04)	(-3.837658e-02 -3.837652e-02 5.714274e-08)	(3.938849e-06 3.939123e-06 3.884089e-04)
0.0124        	(-4.328767e-02 -4.328763e-02 3.885139e-04)	(-4.329183e-02 -4.329179e-02 5.696309e-07)	(4.159363e-06 4.159547e-06 3.879443e-04)
0.0125        	(-4.813957e-02 -4.813942e-02 3.890831e-04)	(-4.814391e-02 -4.814376e-02 1.076583e-06)	(4.345999e-06 4.345941e-06 3.880065e-04)
0.0126        	(-5.291410e-02 -5.291420e-02 3.900645e-04)	(-5.291860e-02 -5.291870e-02 1.524241e-06)	(4.493081e-06 4.493009e-06 3.885403e-04)
0.0127        	(-5.760011e-02 -5.760016e-02 3.913552e-04)	(-5.760471e-02 -5.760475e-02 1.875304e-06)	(4.594806e-06 4.594847e-06 3.894799e-04)
0.0128        	(-6.217613e-02 -6.217612e-02 3.929060e-04)	(-6.218078e-02 -6.218077e-02 2.155447e-06)	(4.645889e-06 4.645985e-06 3.907505e-04)
0.0129        	(-6.662885e-02 -6.662886e-02 3.945896e-04)	(-6.663349e-02 -6.663350e-02 2.320034e-06)	(4.643634e-06 4.643809e-06 3.922696e-04)
0.013         	(-7.094691e-02 -7.094697e-02 3.962862e-04)	(-7.095150e-02 -7.095155e-02 2.338952e-06)	(4.584988e-06 4.585320e-06 3.939473e-04)
0.0131        	(-7.511401e-02 -7.511375e-02 3.978967e-04)	(-7.511848e-02 -7.511822e-02 2.208665e-06)	(4.468329e-06 4.468422e-06 3.956880e-04)
0.0132        	(-7.911543e-02 -7.911580e-02 3.993228e-04)	(-7.911972e-02 -7.912009e-02 1.930683e-06)	(4.292573e-06 4.292985e-06 3.973921e-04)
0.0133        	(-8.294315e-02 -8.294320e-02 4.004439e-04)	(-8.294721e-02 -8.294726e-02 1.487197e-06)	(4.058843e-06 4.059631e-06 3.989567e-04)
0.0134        	(-8.658185e-02 -8.658165e-02 4.011425e-04)	(-8.658562e-02 -8.658542e-02 8.641212e-07)	(3.769241e-06 3.769880e-06 4.002784e-04)
0.0135        	(-9.002218e-02 -9.002221e-02 4.013405e-04)	(-9.002560e-02 -9.002564e-02 8.659419e-08)	(3.427922e-06 3.428519e-06 4.012539e-04)
0.0136        	(-9.325688e-02 -9.325708e-02 4.009519e-04)	(-9.325992e-02 -9.326012e-02 -8.302972e-07)	(3.039300e-06 3.040206e-06 4.017822e-04)
0.0137        	(-9.627684e-02 -9.627669e-02 3.998866e-04)	(-9.627945e-02 -9.627930e-02 -1.879395e-06)	(2.608710e-06 2.609565e-06 4.017659e-04)
0.0138        	(-9.907534e-02 -9.907528e-02 3.980936e-04)	(-9.907748e-02 -9.907742e-02 -3.019211e-06)	(2.141938e-06 2.142594e-06 4.011128e-04)
0.0139        	(-1.016461e-01 -1.016462e-01 3.955217e-04)	(-1.016478e-01 -1.016478e-01 -4.217809e-06)	(1.644975e-06 1.645610e-06 3.997395e-04)
0.014         	(-1.039818e-01 -1.039817e-01 3.921175e-04)	(-1.039829e-01 -1.039828e-01 -5.451442e-06)	(1.125583e-06 1.126092e-06 3.975689e-04)
0.0141        	(-1.060821e-01 -1.060818e-01 3.878491e-04)	(-1.060827e-01 -1.060824e-01 -6.685027e-06)	(5.908802e-07 5.909753e-07 3.945341e-04)
0.0142        	(-1.079461e-01 -1.079462e-01 3.827019e-04)	(-1.079462e-01 -1.079463e-01 -7.877032e-06)	(4.811928e-08 4.811156e-08 3.905789e-04)
0.0143        	(-1.095712e-01 -1.095712e-01 3.767283e-04)	(-1.095707e-01 -1.095707e-01 -8.931423e-06)	(-4.964180e-07 -4.964734e-07 3.856597e-04)
0.0144        	(-1.109205e-01 -1.109205e-01 3.703124e-04)	(-1.109194e-01 -1.109195e-01 -9.440398e-06)	(-1.028353e-06 -1.028337e-06 3.797528e-04)
0.0145        	(-1.120086e-01 -1.120087e-01 3.609393e-04)	(-1.120070e-01 -1.120071e-01 -1.187626e-05)	(-1.527065e-06 -1.526943e-06 3.728156e-04)
0.0146        	(-1.129760e-01 -1.129758e-01 3.517641e-04)	(-1.129740e-01 -1.129738e-01 -1.308112e-05)	(-1.995256e-06 -1.995373e-06 3.648452e-04)
0.0147        	(-1.135972e-01 -1.135972e-01 3.417817e-04)	(-1.135948e-01 -1.135948e-01 -1.406791e-05)	(-2.421389e-06 -2.421741e-06 3.558496e-04)
0.0148        	(-1.140446e-01 -1.140442e-01 3.304911e-04)	(-1.140418e-01 -1.140414e-01 -1.535613e-05)	(-2.806453e-06 -2.807366e-06 3.458473e-04)
0.0149        	(-1.142666e-01 -1.142669e-01 3.185952e-04)	(-1.142635e-01 -1.142638e-01 -1.628293e-05)	(-3.150099e-06 -3.150954e-06 3.348782e-04)
0.015         	(-1.142539e-01 -1.142540e-01 3.057443e-04)	(-1.142505e-01 -1.142506e-01 -1.724515e-05)	(-3.449726e-06 -3.450343e-06 3.229894e-04)
0.0151        	(-1.140273e-01 -1.140273e-01 2.920927e-04)	(-1.140236e-01 -1.140236e-01 -1.814871e-05)	(-3.702767e-06 -3.703237e-06 3.102414e-04)
0.0152        	(-1.136058e-01 -1.136056e-01 2.777824e-04)	(-1.136019e-01 -1.136017e-01 -1.892671e-05)	(-3.908530e-06 -3.909148e-06 2.967091e-04)
0.0153        	(-1.130004e-01 -1.130004e-01 2.628975e-04)	(-1.129963e-01 -1.129963e-01 -1.958101e-05)	(-4.068148e-06 -4.068887e-06 2.824785e-04)
0.0154        	(-1.122161e-01 -1.122163e-01 2.474766e-04)	(-1.122119e-01 -1.122121e-01 -2.017178e-05)	(-4.183969e-06 -4.184424e-06 2.676484e-04)
0.0155        	(-1.112630e-01 -1.112629e-01 2.316466e-04)	(-1.112588e-01 -1.112587e-01 -2.068116e-05)	(-4.258149e-06 -4.258584e-06 2.523278e-04)
0.0156        	(-1.101582e-01 -1.101583e-01 2.155886e-04)	(-1.101539e-01 -1.101540e-01 -2.104595e-05)	(-4.294929e-06 -4.295335e-06 2.366346e-04)
0.0157        	(-1.089137e-01 -1.089139e-01 1.994080e-04)	(-1.089094e-01 -1.089096e-01 -2.128620e-05)	(-4.298769e-06 -4.298927e-06 2.206942e-04)
0.0158        	(-1.075412e-01 -1.075410e-01 1.832246e-04)	(-1.075369e-01 -1.075367e-01 -2.141370e-05)	(-4.274692e-06 -4.274966e-06 2.046383e-04)
0.0159        	(-1.060502e-01 -1.060504e-01 1.671568e-04)	(-1.060460e-01 -1.060461e-01 -2.144724e-05)	(-4.227454e-06 -4.227665e-06 1.886040e-04)
0.016         	(-1.044567e-01 -1.044569e-01 1.513893e-04)	(-1.044526e-01 -1.044528e-01 -2.134234e-05)	(-4.163434e-06 -4.163258e-06 1.727316e-04)
0.0161        	(-1.027801e-01 -1.027800e-01 1.361144e-04)	(-1.027760e-01 -1.027759e-01 -2.104834e-05)	(-4.087464e-06 -4.087243e-06 1.571627e-04)
0.0162        	(-1.010227e-01 -1.010226e-01 1.214288e-04)	(-1.010187e-01 -1.010186e-01 -2.060955e-05)	(-4.004112e-06 -4.004093e-06 1.420383e-04)
0.0163        	(-9.920819e-02 -9.920837e-02 1.075479e-04)	(-9.920427e-02 -9.920445e-02 -1.994939e-05)	(-3.918386e-06 -3.918247e-06 1.274973e-04)
0.0164        	(-9.734318e-02 -9.734317e-02 9.457723e-05)	(-9.733935e-02 -9.733934e-02 -1.909775e-05)	(-3.834269e-06 -3.834072e-06 1.136750e-04)
0.0165        	(-9.544076e-02 -9.544072e-02 8.267937e-05)	(-9.543701e-02 -9.543697e-02 -1.802224e-05)	(-3.753828e-06 -3.753757e-06 1.007016e-04)
0.0166        	(-9.351586e-02 -9.351568e-02 7.201270e-05)	(-9.351218e-02 -9.351200e-02 -1.668838e-05)	(-3.678840e-06 -3.679115e-06 8.870107e-05)
0.0167        	(-9.158167e-02 -9.158184e-02 6.267180e-05)	(-9.157806e-02 -9.157823e-02 -1.511728e-05)	(-3.610941e-06 -3.611224e-06 7.778909e-05)
0.0168        	(-8.964725e-02 -8.964743e-02 5.472450e-05)	(-8.964370e-02 -8.964388e-02 -1.334740e-05)	(-3.551136e-06 -3.551119e-06 6.807191e-05)
0.0169        	(-8.771825e-02 -8.771822e-02 4.828057e-05)	(-8.771475e-02 -8.771472e-02 -1.136416e-05)	(-3.499461e-06 -3.499347e-06 5.964473e-05)
0.017         	(-8.580022e-02 -8.580033e-02 4.333358e-05)	(-8.579677e-02 -8.579687e-02 -9.257544e-06)	(-3.455711e-06 -3.455429e-06 5.259113e-05)
0.0171        	(-8.390501e-02 -8.390495e-02 3.998403e-05)	(-8.390159e-02 -8.390153e-02 -6.997406e-06)	(-3.418918e-06 -3.418581e-06 4.698144e-05)
0.0172        	(-8.203813e-02 -8.203814e-02 3.822432e-05)	(-8.203475e-02 -8.203475e-02 -4.648778e-06)	(-3.387771e-06 -3.387445e-06 4.287310e-05)
0.0173        	(-8.020276e-02 -8.020301e-02 3.814081e-05)	(-8.019940e-02 -8.019965e-02 -2.167995e-06)	(-3.361085e-06 -3.360441e-06 4.030880e-05)
0.0174        	(-7.840590e-02 -7.840590e-02 3.960013e-05)	(-7.840256e-02 -7.840257e-02 2.831925e-07)	(-3.336232e-06 -3.335414e-06 3.931694e-05)
0.0175        	(-7.664805e-02 -7.664796e-02 4.260293e-05)	(-7.664474e-02 -7.664465e-02 2.691899e-06)	(-3.311354e-06 -3.310662e-06 3.991103e-05)
0.0176        	(-7.492926e-02 -7.492935e-02 4.717147e-05)	(-7.492598e-02 -7.492606e-02 5.081951e-06)	(-3.284593e-06 -3.283892e-06 4.208952e-05)
0.0177        	(-7.325643e-02 -7.325633e-02 5.321831e-05)	(-7.325318e-02 -7.325307e-02 7.382519e-06)	(-3.254089e-06 -3.253535e-06 4.583579e-05)
0.0178        	(-7.162001e-02 -7.162000e-02 6.065682e-05)	(-7.161679e-02 -7.161678e-02 9.538612e-06)	(-3.217590e-06 -3.217217e-06 5.111821e-05)
0.0179        	(-7.002031e-02 -7.002038e-02 6.945580e-05)	(-7.001713e-02 -7.001721e-02 1.156449e-05)	(-3.173766e-06 -3.173398e-06 5.789131e-05)
0.018         	(-6.847538e-02 -6.847548e-02 7.933580e-05)	(-6.847225e-02 -6.847235e-02 1.324427e-05)	(-3.125489e-06 -3.125001e-06 6.609153e-05)
0.0181        	(-6.696532e-02 -6.696528e-02 9.034089e-05)	(-6.696224e-02 -6.696221e-02 1.469988e-05)	(-3.073503e-06 -3.072996e-06 7.564101e-05)
0.0182        	(-6.547674e-02 -6.547674e-02 1.023763e-04)	(-6.547372e-02 -6.547372e-02 1.592524e-05)	(-3.019713e-06 -3.019230e-06 8.645110e-05)
0.0183        	(-6.401358e-02 -6.401344e-02 1.153146e-04)	(-6.401062e-02 -6.401047e-02 1.689238e-05)	(-2.964023e-06 -2.963752e-06 9.842225e-05)
0.0184        	(-6.256442e-02 -6.256458e-02 1.290793e-04)	(-6.256151e-02 -6.256167e-02 1.763445e-05)	(-2.906587e-06 -2.906263e-06 1.114449e-04)
0.0185        	(-6.113363e-02 -6.113366e-02 1.435201e-04)	(-6.113079e-02 -6.113081e-02 1.812109e-05)	(-2.847558e-06 -2.847143e-06 1.253990e-04)
0.0186        	(-5.971306e-02 -5.971340e-02 1.585007e-04)	(-5.971027e-02 -5.971061e-02 1.834535e-05)	(-2.788831e-06 -2.787964e-06 1.401553e-04)
0.0187        	(-5.829409e-02 -5.829410e-02 1.739039e-04)	(-5.829135e-02 -5.829137e-02 1.832690e-05)	(-2.730873e-06 -2.729669e-06 1.555770e-04)
0.0188        	(-5.687165e-02 -5.687160e-02 1.896208e-04)	(-5.686897e-02 -5.686892e-02 1.809946e-05)	(-2.676206e-06 -2.674967e-06 1.715213e-04)
0.0189        	(-5.542974e-02 -5.542971e-02 2.054968e-04)	(-5.542711e-02 -5.542708e-02 1.765565e-05)	(-2.625688e-06 -2.624478e-06 1.878411e-04)
0.019         	(-5.396904e-02 -5.396911e-02 2.214304e-04)	(-5.396646e-02 -5.396653e-02 1.704382e-05)	(-2.581159e-06 -2.579927e-06 2.043866e-04)
0.0191        	(-5.247626e-02 -5.247620e-02 2.372966e-04)	(-5.247371e-02 -5.247366e-02 1.628969e-05)	(-2.543791e-06 -2.542691e-06 2.210069e-04)
0.0192        	(-5.094389e-02 -5.094390e-02 2.529748e-04)	(-5.094137e-02 -5.094139e-02 1.542307e-05)	(-2.513883e-06 -2.512923e-06 2.375517e-04)
0.0193        	(-4.937429e-02 -4.937429e-02 2.683176e-04)	(-4.937179e-02 -4.937180e-02 1.444471e-05)	(-2.493020e-06 -2.492171e-06 2.538728e-04)
0.0194        	(-4.775046e-02 -4.775052e-02 2.832352e-04)	(-4.774798e-02 -4.774804e-02 1.340837e-05)	(-2.481105e-06 -2.480281e-06 2.698268e-04)
0.0195        	(-4.607079e-02 -4.607074e-02 2.976077e-04)	(-4.606831e-02 -4.606826e-02 1.233268e-05)	(-2.478388e-06 -2.477621e-06 2.852751e-04)
0.0196        	(-4.432762e-02 -4.432764e-02 3.113307e-04)	(-4.432514e-02 -4.432516e-02 1.124470e-05)	(-2.485114e-06 -2.484367e-06 3.000860e-04)
0.0197        	(-4.251439e-02 -4.251447e-02 3.243116e-04)	(-4.251189e-02 -4.251197e-02 1.017535e-05)	(-2.500957e-06 -2.500109e-06 3.141363e-04)
0.0198        	(-4.062331e-02 -4.062327e-02 3.364323e-04)	(-4.062078e-02 -4.062074e-02 9.120082e-06)	(-2.525315e-06 -2.524451e-06 3.273122e-04)
0.0199        	(-3.865631e-02 -3.865633e-02 3.476321e-04)	(-3.865375e-02 -3.865377e-02 8.121764e-06)	(-2.557632e-06 -2.556764e-06 3.395104e-04)
0.02          	(-3.660542e-02 -3.660554e-02 3.578276e-04)	(-3.660283e-02 -3.660294e-02 7.188536e-06)	(-2.597650e-06 -2.596654e-06 3.506391e-04)
