# Moment      
# CofR        : (5.000000e-01 1.000000e-01 0.000000e+00)
#
# Time        	(total_x total_y total_z)	(pressure_x pressure_y pressure_z)	(viscous_x viscous_y viscous_z)
0.0001        	(-1.350018e-05 1.346149e-05 -3.529816e-03)	(-1.131020e-05 2.214511e-06 -3.530161e-03)	(-2.189982e-06 1.124698e-05 3.446719e-07)
0.0002        	(-2.546185e-05 1.950978e-05 -5.338889e-03)	(-2.107253e-05 -3.032490e-06 -5.339368e-03)	(-4.389320e-06 2.254227e-05 4.789553e-07)
0.0003        	(-3.256319e-05 1.684179e-05 -6.303265e-03)	(-2.595881e-05 -1.707724e-05 -6.303849e-03)	(-6.604382e-06 3.391903e-05 5.839987e-07)
0.0004        	(-3.681295e-05 8.466481e-06 -7.038939e-03)	(-2.795225e-05 -3.704183e-05 -7.039586e-03)	(-8.860703e-06 4.550831e-05 6.465954e-07)
0.0005        	(-4.171304e-05 -4.432470e-07 -7.878900e-03)	(-3.053894e-05 -5.783463e-05 -7.879572e-03)	(-1.117410e-05 5.739138e-05 6.711228e-07)
0.0006        	(-4.944072e-05 -6.200060e-06 -8.899015e-03)	(-3.589896e-05 -7.575395e-05 -8.899681e-03)	(-1.354176e-05 6.955389e-05 6.655978e-07)
0.0007        	(-6.045300e-05 -7.486019e-06 -1.005420e-02)	(-4.449850e-05 -8.943474e-05 -1.005484e-02)	(-1.595451e-05 8.194872e-05 6.386748e-07)
0.0008        	(-7.434116e-05 -4.311102e-06 -1.128317e-02)	(-5.593734e-05 -9.884323e-05 -1.128377e-02)	(-1.840382e-05 9.453212e-05 5.979996e-07)
0.0009        	(-9.066671e-05 3.090762e-06 -1.255077e-02)	(-6.978418e-05 -1.041765e-04 -1.255132e-02)	(-2.088253e-05 1.072672e-04 5.499043e-07)
0.001         	(-1.093028e-04 1.471756e-05 -1.384851e-02)	(-8.591882e-05 -1.054022e-04 -1.384901e-02)	(-2.338396e-05 1.201198e-04 4.994242e-07)
0.0011        	(-1.303244e-04 3.068417e-05 -1.517934e-02)	(-1.044229e-04 -1.023717e-04 -1.517979e-02)	(-2.590150e-05 1.330559e-04 4.502216e-07)
0.0012        	(-1.538885e-04 5.116649e-05 -1.654530e-02)	(-1.254596e-04 -9.487646e-05 -1.654571e-02)	(-2.842884e-05 1.460430e-04 4.050483e-07)
0.0013        	(-1.800677e-04 7.617316e-05 -1.794400e-02)	(-1.491077e-04 -8.287731e-05 -1.794437e-02)	(-3.096003e-05 1.590505e-04 3.656521e-07)
0.0014        	(-2.088861e-04 1.056380e-04 -1.937061e-02)	(-1.753957e-04 -6.641626e-05 -1.937094e-02)	(-3.349038e-05 1.720543e-04 3.337457e-07)
0.0015        	(-2.402769e-04 1.392816e-04 -2.082017e-02)	(-2.042612e-04 -4.575124e-05 -2.082048e-02)	(-3.601572e-05 1.850328e-04 3.091827e-07)
0.0016        	(-2.741718e-04 1.767874e-04 -2.228901e-02)	(-2.356393e-04 -2.118034e-05 -2.228931e-02)	(-3.853247e-05 1.979677e-04 2.917475e-07)
0.0017        	(-3.105593e-04 2.181145e-04 -2.377137e-02)	(-2.695222e-04 7.273750e-06 -2.377165e-02)	(-4.103710e-05 2.108408e-04 2.812477e-07)
0.0018        	(-3.493956e-04 2.630310e-04 -2.526393e-02)	(-3.058693e-04 3.939652e-05 -2.526421e-02)	(-4.352624e-05 2.236345e-04 2.770575e-07)
0.0019        	(-3.906049e-04 3.111321e-04 -2.676749e-02)	(-3.446083e-04 7.480020e-05 -2.676777e-02)	(-4.599659e-05 2.363319e-04 2.776728e-07)
0.002         	(-4.341483e-04 3.622568e-04 -2.827795e-02)	(-3.857037e-04 1.133422e-04 -2.827823e-02)	(-4.844460e-05 2.489146e-04 2.827120e-07)
0.0021        	(-4.800037e-04 4.165086e-04 -2.978936e-02)	(-4.291375e-04 1.551466e-04 -2.978966e-02)	(-5.086625e-05 2.613620e-04 2.915920e-07)
0.0022        	(-5.281465e-04 4.735550e-04 -3.130417e-02)	(-4.748895e-04 1.999042e-04 -3.130448e-02)	(-5.325702e-05 2.736508e-04 3.029172e-07)
0.0023        	(-5.784030e-04 5.331662e-04 -3.281662e-02)	(-5.227915e-04 2.474128e-04 -3.281693e-02)	(-5.561155e-05 2.857534e-04 3.160292e-07)
0.0024        	(-6.307686e-04 5.952114e-04 -3.432640e-02)	(-5.728454e-04 2.975756e-04 -3.432673e-02)	(-5.792323e-05 2.976358e-04 3.300531e-07)
0.0025        	(-6.851750e-04 6.593488e-04 -3.583557e-02)	(-6.249906e-04 3.500906e-04 -3.583592e-02)	(-6.018433e-05 3.092582e-04 3.444249e-07)
0.0026        	(-7.413799e-04 7.253375e-04 -3.733790e-02)	(-6.789938e-04 4.047616e-04 -3.733826e-02)	(-6.238612e-05 3.205758e-04 3.584135e-07)
0.0027        	(-7.993956e-04 7.930129e-04 -3.883569e-02)	(-7.348765e-04 4.614731e-04 -3.883607e-02)	(-6.451907e-05 3.315398e-04 3.718650e-07)
0.0028        	(-8.591232e-04 8.622059e-04 -4.032767e-02)	(-7.925498e-04 5.201062e-04 -4.032805e-02)	(-6.657342e-05 3.420998e-04 3.843336e-07)
0.0029        	(-9.203757e-04 9.326279e-04 -4.181224e-02)	(-8.518360e-04 5.804210e-04 -4.181263e-02)	(-6.853963e-05 3.522070e-04 3.957558e-07)
0.003         	(-9.831185e-04 1.004188e-03 -4.328912e-02)	(-9.127096e-04 6.423716e-04 -4.328952e-02)	(-7.040890e-05 3.618161e-04 4.058148e-07)
0.0031        	(-1.076171e-03 1.281910e-03 -4.123037e-02)	(-1.006233e-03 9.225025e-04 -4.123069e-02)	(-6.993845e-05 3.594071e-04 3.173331e-07)
0.0032        	(-1.139993e-03 1.404505e-03 -4.084758e-02)	(-1.070663e-03 1.048215e-03 -4.084795e-02)	(-6.933074e-05 3.562907e-04 3.762988e-07)
0.0033        	(-1.197354e-03 1.472232e-03 -4.130563e-02)	(-1.128759e-03 1.119718e-03 -4.130603e-02)	(-6.859476e-05 3.525133e-04 4.013759e-07)
0.0034        	(-1.255640e-03 1.529612e-03 -4.200002e-02)	(-1.187929e-03 1.181639e-03 -4.200044e-02)	(-6.771037e-05 3.479725e-04 4.146945e-07)
0.0035        	(-1.314438e-03 1.588028e-03 -4.258847e-02)	(-1.247773e-03 1.245425e-03 -4.258889e-02)	(-6.666491e-05 3.426035e-04 4.192031e-07)
0.0036        	(-1.371912e-03 1.645785e-03 -4.298983e-02)	(-1.306447e-03 1.309349e-03 -4.299024e-02)	(-6.546423e-05 3.364367e-04 4.137992e-07)
0.0037        	(-1.427150e-03 1.700070e-03 -4.324164e-02)	(-1.363028e-03 1.370528e-03 -4.324204e-02)	(-6.412200e-05 3.295422e-04 3.985541e-07)
0.0038        	(-1.480280e-03 1.750076e-03 -4.340708e-02)	(-1.417626e-03 1.428078e-03 -4.340745e-02)	(-6.265340e-05 3.219982e-04 3.747078e-07)
0.0039        	(-1.532137e-03 1.796722e-03 -4.353498e-02)	(-1.471064e-03 1.482843e-03 -4.353533e-02)	(-6.107298e-05 3.138793e-04 3.433480e-07)
0.004         	(-1.582962e-03 1.840937e-03 -4.362969e-02)	(-1.523566e-03 1.535677e-03 -4.363000e-02)	(-5.939521e-05 3.052602e-04 3.067413e-07)
0.0041        	(-1.632460e-03 1.883001e-03 -4.368006e-02)	(-1.574825e-03 1.586784e-03 -4.368032e-02)	(-5.763504e-05 2.962175e-04 2.674469e-07)
0.0042        	(-1.681042e-03 1.923610e-03 -4.370078e-02)	(-1.625234e-03 1.636782e-03 -4.370101e-02)	(-5.580732e-05 2.868276e-04 2.272409e-07)
0.0043        	(-1.728649e-03 1.962970e-03 -4.369185e-02)	(-1.674723e-03 1.685808e-03 -4.369204e-02)	(-5.392608e-05 2.771626e-04 1.885139e-07)
0.0044        	(-1.774792e-03 2.000786e-03 -4.364084e-02)	(-1.722788e-03 1.733496e-03 -4.364099e-02)	(-5.200446e-05 2.672900e-04 1.523815e-07)
0.0045        	(-1.819814e-03 2.037397e-03 -4.356628e-02)	(-1.769759e-03 1.780123e-03 -4.356640e-02)	(-5.005498e-05 2.572741e-04 1.202483e-07)
0.0046        	(-1.864023e-03 2.073122e-03 -4.348290e-02)	(-1.815934e-03 1.825950e-03 -4.348299e-02)	(-4.808886e-05 2.471727e-04 9.266578e-08)
0.0047        	(-1.906948e-03 2.107623e-03 -4.337897e-02)	(-1.860831e-03 1.870583e-03 -4.337904e-02)	(-4.611667e-05 2.370401e-04 6.933089e-08)
0.0048        	(-1.948640e-03 2.140950e-03 -4.325815e-02)	(-1.904492e-03 1.914021e-03 -4.325820e-02)	(-4.414877e-05 2.269295e-04 5.056713e-08)
0.0049        	(-1.989671e-03 2.173678e-03 -4.313945e-02)	(-1.947476e-03 1.956786e-03 -4.313949e-02)	(-4.219517e-05 2.168924e-04 3.612159e-08)
0.005         	(-2.029606e-03 2.205405e-03 -4.301230e-02)	(-1.989340e-03 1.998424e-03 -4.301232e-02)	(-4.026614e-05 2.069818e-04 2.617212e-08)
0.0051        	(-2.068222e-03 2.235970e-03 -4.287159e-02)	(-2.029849e-03 2.038716e-03 -4.287161e-02)	(-3.837261e-05 1.972539e-04 2.065245e-08)
0.0052        	(-2.106215e-03 2.266062e-03 -4.273805e-02)	(-2.069689e-03 2.078294e-03 -4.273806e-02)	(-3.652613e-05 1.877679e-04 1.837679e-08)
0.0053        	(-2.143413e-03 2.295480e-03 -4.260544e-02)	(-2.108674e-03 2.116893e-03 -4.260546e-02)	(-3.473899e-05 1.785874e-04 1.977110e-08)
0.0054        	(-2.179376e-03 2.323939e-03 -4.246138e-02)	(-2.146351e-03 2.154157e-03 -4.246140e-02)	(-3.302475e-05 1.697819e-04 2.377111e-08)
0.0055        	(-2.214764e-03 2.352053e-03 -4.232141e-02)	(-2.183366e-03 2.190627e-03 -4.232144e-02)	(-3.139806e-05 1.614267e-04 3.023395e-08)
0.0056        	(-2.249724e-03 2.380002e-03 -4.218770e-02)	(-2.219850e-03 2.226402e-03 -4.218774e-02)	(-2.987419e-05 1.536004e-04 3.915868e-08)
0.0057        	(-2.283934e-03 2.407639e-03 -4.204879e-02)	(-2.255465e-03 2.261255e-03 -4.204884e-02)	(-2.846894e-05 1.463841e-04 5.038572e-08)
0.0058        	(-2.317682e-03 2.435312e-03 -4.191085e-02)	(-2.290484e-03 2.295454e-03 -4.191092e-02)	(-2.719796e-05 1.398580e-04 6.254034e-08)
0.0059        	(-2.351301e-03 2.463357e-03 -4.177980e-02)	(-2.325225e-03 2.329259e-03 -4.177987e-02)	(-2.607598e-05 1.340980e-04 7.595761e-08)
0.006         	(-2.384511e-03 2.491651e-03 -4.164701e-02)	(-2.359394e-03 2.362478e-03 -4.164710e-02)	(-2.511644e-05 1.291727e-04 8.989457e-08)
0.0061        	(-2.417244e-03 2.520168e-03 -4.150849e-02)	(-2.392914e-03 2.395027e-03 -4.150859e-02)	(-2.433067e-05 1.251406e-04 1.045311e-07)
0.0062        	(-2.450277e-03 2.549714e-03 -4.137855e-02)	(-2.426550e-03 2.427669e-03 -4.137867e-02)	(-2.372721e-05 1.220452e-04 1.192773e-07)
0.0063        	(-2.483307e-03 2.580014e-03 -4.124912e-02)	(-2.459996e-03 2.460099e-03 -4.124926e-02)	(-2.331154e-05 1.199149e-04 1.340759e-07)
0.0064        	(-2.515914e-03 2.610725e-03 -4.111055e-02)	(-2.492828e-03 2.491965e-03 -4.111070e-02)	(-2.308581e-05 1.187604e-04 1.490520e-07)
0.0065        	(-2.548657e-03 2.642311e-03 -4.097335e-02)	(-2.525608e-03 2.523736e-03 -4.097352e-02)	(-2.304880e-05 1.185754e-04 1.639136e-07)
0.0066        	(-2.581613e-03 2.674898e-03 -4.083739e-02)	(-2.558417e-03 2.555562e-03 -4.083757e-02)	(-2.319594e-05 1.193365e-04 1.787649e-07)
0.0067        	(-2.614334e-03 2.707958e-03 -4.069314e-02)	(-2.590814e-03 2.586953e-03 -4.069334e-02)	(-2.351984e-05 1.210054e-04 1.932357e-07)
0.0068        	(-2.646725e-03 2.741419e-03 -4.054029e-02)	(-2.622715e-03 2.617888e-03 -4.054049e-02)	(-2.401060e-05 1.235313e-04 2.070051e-07)
0.0069        	(-2.679318e-03 2.775696e-03 -4.038629e-02)	(-2.654662e-03 2.648844e-03 -4.038651e-02)	(-2.465612e-05 1.268518e-04 2.203168e-07)
0.007         	(-2.711662e-03 2.810340e-03 -4.022390e-02)	(-2.686219e-03 2.679443e-03 -4.022414e-02)	(-2.544290e-05 1.308976e-04 2.321204e-07)
0.0071        	(-2.743442e-03 2.845012e-03 -4.004905e-02)	(-2.717085e-03 2.709418e-03 -4.004930e-02)	(-2.635641e-05 1.355935e-04 2.419300e-07)
0.0072        	(-2.774771e-03 2.879715e-03 -3.986262e-02)	(-2.747390e-03 2.738854e-03 -3.986287e-02)	(-2.738142e-05 1.408614e-04 2.497766e-07)
0.0073        	(-2.805815e-03 2.914609e-03 -3.966966e-02)	(-2.777313e-03 2.767987e-03 -3.966991e-02)	(-2.850248e-05 1.466215e-04 2.543483e-07)
0.0074        	(-2.836055e-03 2.949178e-03 -3.946114e-02)	(-2.806351e-03 2.796383e-03 -3.946140e-02)	(-2.970415e-05 1.527944e-04 2.556398e-07)
0.0075        	(-2.865197e-03 2.983023e-03 -3.923373e-02)	(-2.834226e-03 2.823722e-03 -3.923399e-02)	(-3.097128e-05 1.593019e-04 2.527143e-07)
0.0076        	(-2.893442e-03 3.016329e-03 -3.899363e-02)	(-2.861153e-03 2.850262e-03 -3.899387e-02)	(-3.228902e-05 1.660676e-04 2.451326e-07)
0.0077        	(-2.920573e-03 3.048824e-03 -3.873682e-02)	(-2.886931e-03 2.875807e-03 -3.873705e-02)	(-3.364291e-05 1.730171e-04 2.332112e-07)
0.0078        	(-2.946228e-03 3.080076e-03 -3.846055e-02)	(-2.911209e-03 2.899997e-03 -3.846076e-02)	(-3.501900e-05 1.800787e-04 2.164955e-07)
0.0079        	(-2.970124e-03 3.109782e-03 -3.816258e-02)	(-2.933721e-03 2.922599e-03 -3.816278e-02)	(-3.640376e-05 1.871829e-04 1.953837e-07)
0.008         	(-2.992037e-03 3.137607e-03 -3.784079e-02)	(-2.954253e-03 2.943345e-03 -3.784096e-02)	(-3.778412e-05 1.942627e-04 1.705858e-07)
0.0081        	(-3.012019e-03 3.163545e-03 -3.749959e-02)	(-2.972872e-03 2.962292e-03 -3.749973e-02)	(-3.914742e-05 2.012531e-04 1.419241e-07)
0.0082        	(-3.029573e-03 3.187032e-03 -3.713239e-02)	(-2.989091e-03 2.978941e-03 -3.713250e-02)	(-4.048133e-05 2.080911e-04 1.108057e-07)
0.0083        	(-3.044256e-03 3.207557e-03 -3.673585e-02)	(-3.002482e-03 2.992841e-03 -3.673593e-02)	(-4.177399e-05 2.147158e-04 7.771244e-08)
0.0084        	(-3.055909e-03 3.224863e-03 -3.631186e-02)	(-3.012895e-03 3.003794e-03 -3.631191e-02)	(-4.301396e-05 2.210689e-04 4.335948e-08)
0.0085        	(-3.064264e-03 3.238624e-03 -3.585671e-02)	(-3.020074e-03 3.011530e-03 -3.585672e-02)	(-4.419034e-05 2.270947e-04 8.981936e-09)
0.0086        	(-3.069171e-03 3.248661e-03 -3.537220e-02)	(-3.023878e-03 3.015920e-03 -3.537217e-02)	(-4.529284e-05 2.327406e-04 -2.539908e-08)
0.0087        	(-3.069945e-03 3.254180e-03 -3.485189e-02)	(-3.023634e-03 3.016222e-03 -3.485183e-02)	(-4.631182e-05 2.379575e-04 -5.812184e-08)
0.0088        	(-3.066184e-03 3.254788e-03 -3.429170e-02)	(-3.018946e-03 3.012086e-03 -3.429161e-02)	(-4.723863e-05 2.427013e-04 -8.884344e-08)
0.0089        	(-3.058081e-03 3.250607e-03 -3.369859e-02)	(-3.010015e-03 3.003674e-03 -3.369847e-02)	(-4.806566e-05 2.469329e-04 -1.175249e-07)
0.009         	(-3.044993e-03 3.240954e-03 -3.306448e-02)	(-2.996207e-03 2.990334e-03 -3.306434e-02)	(-4.878636e-05 2.506193e-04 -1.424702e-07)
0.0091        	(-3.026358e-03 3.225277e-03 -3.238595e-02)	(-2.976963e-03 2.971543e-03 -3.238578e-02)	(-4.939568e-05 2.537345e-04 -1.642482e-07)
0.0092        	(-3.002160e-03 3.203519e-03 -3.166541e-02)	(-2.952270e-03 2.947259e-03 -3.166522e-02)	(-4.988999e-05 2.562601e-04 -1.822111e-07)
0.0093        	(-2.972051e-03 3.175324e-03 -3.089846e-02)	(-2.921784e-03 2.917139e-03 -3.089826e-02)	(-5.026711e-05 2.581851e-04 -1.961631e-07)
0.0094        	(-2.935726e-03 3.140404e-03 -3.008592e-02)	(-2.885199e-03 2.880897e-03 -3.008571e-02)	(-5.052664e-05 2.595073e-04 -2.064907e-07)
0.0095        	(-2.892637e-03 3.098199e-03 -2.922047e-02)	(-2.841968e-03 2.837966e-03 -2.922025e-02)	(-5.066969e-05 2.602327e-04 -2.125405e-07)
0.0096        	(-2.842741e-03 3.048675e-03 -2.830493e-02)	(-2.792042e-03 2.788300e-03 -2.830472e-02)	(-5.069899e-05 2.603750e-04 -2.147560e-07)
0.0097        	(-2.785907e-03 2.991733e-03 -2.733897e-02)	(-2.735288e-03 2.731777e-03 -2.733875e-02)	(-5.061878e-05 2.599560e-04 -2.138169e-07)
0.0098        	(-2.721669e-03 2.926914e-03 -2.631677e-02)	(-2.671234e-03 2.667910e-03 -2.631656e-02)	(-5.043468e-05 2.590044e-04 -2.096214e-07)
0.0099        	(-2.649976e-03 2.854222e-03 -2.524054e-02)	(-2.599822e-03 2.596667e-03 -2.524034e-02)	(-5.015365e-05 2.575554e-04 -2.036947e-07)
0.01          	(-2.570538e-03 2.773400e-03 -2.410677e-02)	(-2.520754e-03 2.517750e-03 -2.410658e-02)	(-4.978364e-05 2.556497e-04 -1.965825e-07)
0.0101        	(-2.483294e-03 2.684409e-03 -2.291557e-02)	(-2.433960e-03 2.431077e-03 -2.291538e-02)	(-4.933353e-05 2.533322e-04 -1.895015e-07)
0.0102        	(-2.388237e-03 2.587298e-03 -2.166803e-02)	(-2.339425e-03 2.336646e-03 -2.166785e-02)	(-4.881281e-05 2.506514e-04 -1.834747e-07)
0.0103        	(-2.285205e-03 2.481952e-03 -2.036101e-02)	(-2.236974e-03 2.234295e-03 -2.036083e-02)	(-4.823140e-05 2.476577e-04 -1.796510e-07)
0.0104        	(-2.174225e-03 2.368431e-03 -1.899643e-02)	(-2.126625e-03 2.124028e-03 -1.899625e-02)	(-4.759950e-05 2.444031e-04 -1.791516e-07)
0.0105        	(-2.055411e-03 2.246912e-03 -1.757474e-02)	(-2.008484e-03 2.005972e-03 -1.757456e-02)	(-4.692751e-05 2.409403e-04 -1.833247e-07)
0.0106        	(-1.928612e-03 2.117254e-03 -1.609417e-02)	(-1.882387e-03 1.879933e-03 -1.609398e-02)	(-4.622554e-05 2.373209e-04 -1.931038e-07)
0.0107        	(-1.794038e-03 1.979695e-03 -1.455746e-02)	(-1.748534e-03 1.746099e-03 -1.455725e-02)	(-4.550358e-05 2.335956e-04 -2.099635e-07)
0.0108        	(-1.652042e-03 1.834710e-03 -1.296629e-02)	(-1.607270e-03 1.604894e-03 -1.296606e-02)	(-4.477188e-05 2.298166e-04 -2.350671e-07)
0.0109        	(-1.502729e-03 1.682419e-03 -1.132184e-02)	(-1.458688e-03 1.456384e-03 -1.132157e-02)	(-4.404040e-05 2.260345e-04 -2.696049e-07)
0.011         	(-1.346403e-03 1.523177e-03 -9.626026e-03)	(-1.303084e-03 1.300878e-03 -9.625712e-03)	(-4.331878e-05 2.222983e-04 -3.145429e-07)
0.0111        	(-1.183338e-03 1.357281e-03 -7.881388e-03)	(-1.140722e-03 1.138627e-03 -7.881018e-03)	(-4.261592e-05 2.186536e-04 -3.700973e-07)
0.0112        	(-1.013979e-03 1.185202e-03 -6.090818e-03)	(-9.720388e-04 9.700594e-04 -6.090382e-03)	(-4.193997e-05 2.151422e-04 -4.363900e-07)
0.0113        	(-8.388285e-04 1.007483e-03 -4.258278e-03)	(-7.975302e-04 7.956809e-04 -4.257765e-03)	(-4.129833e-05 2.118022e-04 -5.132466e-07)
0.0114        	(-6.584732e-04 8.247463e-04 -2.389100e-03)	(-6.177755e-04 6.160781e-04 -2.388500e-03)	(-4.069769e-05 2.086682e-04 -6.000392e-07)
0.0115        	(-4.732447e-04 6.373240e-04 -4.842722e-04)	(-4.331009e-04 4.315537e-04 -4.835764e-04)	(-4.014384e-05 2.057703e-04 -6.958431e-07)
0.0116        	(-2.839215e-04 4.460349e-04 1.448760e-03)	(-2.442798e-04 2.429006e-04 1.449560e-03)	(-3.964171e-05 2.031343e-04 -7.995291e-07)
0.0117        	(-9.103465e-05 2.514156e-04 3.406990e-03)	(-5.183939e-05 5.063429e-05 3.407900e-03)	(-3.919526e-05 2.007813e-04 -9.094299e-07)
0.0118        	(1.046772e-04 5.422474e-05 5.384317e-03)	(1.434847e-04 -1.445027e-04 5.385340e-03)	(-3.880748e-05 1.987275e-04 -1.023539e-06)
0.0119        	(3.024499e-04 -1.447669e-04 7.374539e-03)	(3.409302e-04 -3.417508e-04 7.375679e-03)	(-3.848035e-05 1.969839e-04 -1.139854e-06)
0.012         	(5.015770e-04 -3.448570e-04 9.372545e-03)	(5.397917e-04 -5.404132e-04 9.373801e-03)	(-3.821473e-05 1.955563e-04 -1.255726e-06)
0.0121        	(7.012631e-04 -5.452391e-04 1.137170e-02)	(7.392736e-04 -7.396840e-04 1.137307e-02)	(-3.801049e-05 1.944449e-04 -1.368892e-06)
0.0122        	(9.006828e-04 -7.451001e-04 1.336623e-02)	(9.385491e-04 -9.387444e-04 1.336771e-02)	(-3.786630e-05 1.936443e-04 -1.476381e-06)
0.0123        	(1.099013e-03 -9.436277e-04 1.534903e-02)	(1.136793e-03 -1.136771e-03 1.535060e-02)	(-3.777977e-05 1.931433e-04 -1.575676e-06)
0.0124        	(1.295550e-03 -1.140145e-03 1.731505e-02)	(1.333297e-03 -1.333070e-03 1.731671e-02)	(-3.774731e-05 1.929250e-04 -1.663836e-06)
0.0125        	(1.489325e-03 -1.333696e-03 1.925575e-02)	(1.527089e-03 -1.526662e-03 1.925749e-02)	(-3.776433e-05 1.929669e-04 -1.738371e-06)
0.0126        	(1.679607e-03 -1.523579e-03 2.116569e-02)	(1.717432e-03 -1.716820e-03 2.116749e-02)	(-3.782521e-05 1.932413e-04 -1.797197e-06)
0.0127        	(1.865731e-03 -1.709188e-03 2.304007e-02)	(1.903654e-03 -1.902903e-03 2.304191e-02)	(-3.792331e-05 1.937153e-04 -1.837943e-06)
0.0128        	(2.046764e-03 -1.889602e-03 2.487045e-02)	(2.084816e-03 -2.083954e-03 2.487231e-02)	(-3.805115e-05 1.943514e-04 -1.858403e-06)
0.0129        	(2.222022e-03 -2.064186e-03 2.665154e-02)	(2.260223e-03 -2.259294e-03 2.665340e-02)	(-3.820055e-05 1.951084e-04 -1.857541e-06)
0.013         	(2.390922e-03 -2.232406e-03 2.837879e-02)	(2.429284e-03 -2.428348e-03 2.838063e-02)	(-3.836270e-05 1.959416e-04 -1.834160e-06)
0.0131        	(2.552710e-03 -2.393555e-03 3.004547e-02)	(2.591239e-03 -2.590358e-03 3.004726e-02)	(-3.852822e-05 1.968034e-04 -1.787378e-06)
0.0132        	(2.706718e-03 -2.546985e-03 3.164636e-02)	(2.745405e-03 -2.744629e-03 3.164807e-02)	(-3.868742e-05 1.976443e-04 -1.717234e-06)
0.0133        	(2.852496e-03 -2.692317e-03 3.317728e-02)	(2.891326e-03 -2.890730e-03 3.317891e-02)	(-3.883037e-05 1.984130e-04 -1.623928e-06)
0.0134        	(2.989406e-03 -2.828952e-03 3.463264e-02)	(3.028353e-03 -3.028011e-03 3.463415e-02)	(-3.894710e-05 1.990584e-04 -1.508013e-06)
0.0135        	(3.117024e-03 -2.956488e-03 3.600889e-02)	(3.156051e-03 -3.156017e-03 3.601026e-02)	(-3.902782e-05 1.995294e-04 -1.371465e-06)
0.0136        	(3.234977e-03 -3.074590e-03 3.730285e-02)	(3.274040e-03 -3.274366e-03 3.730407e-02)	(-3.906291e-05 1.997758e-04 -1.216169e-06)
0.0137        	(3.342883e-03 -3.182934e-03 3.851066e-02)	(3.381927e-03 -3.382684e-03 3.851170e-02)	(-3.904316e-05 1.997495e-04 -1.043908e-06)
0.0138        	(3.440468e-03 -3.281233e-03 3.963010e-02)	(3.479428e-03 -3.480638e-03 3.963096e-02)	(-3.895990e-05 1.994050e-04 -8.571007e-07)
0.0139        	(3.527504e-03 -3.369289e-03 4.065848e-02)	(3.566309e-03 -3.567990e-03 4.065913e-02)	(-3.880535e-05 1.987011e-04 -6.583051e-07)
0.014         	(3.603714e-03 -3.446871e-03 4.159267e-02)	(3.642286e-03 -3.644471e-03 4.159312e-02)	(-3.857239e-05 1.975999e-04 -4.504859e-07)
0.0141        	(3.669087e-03 -3.513950e-03 4.243271e-02)	(3.707342e-03 -3.710018e-03 4.243295e-02)	(-3.825488e-05 1.960685e-04 -2.363993e-07)
0.0142        	(3.723661e-03 -3.570581e-03 4.317850e-02)	(3.761509e-03 -3.764660e-03 4.317852e-02)	(-3.784773e-05 1.940793e-04 -1.924390e-08)
0.0143        	(3.767413e-03 -3.616723e-03 4.382846e-02)	(3.804760e-03 -3.808334e-03 4.382826e-02)	(-3.734700e-05 1.916109e-04 1.985947e-07)
0.0144        	(3.798932e-03 -3.650802e-03 4.436822e-02)	(3.835683e-03 -3.839454e-03 4.436781e-02)	(-3.675103e-05 1.886522e-04 4.113332e-07)
0.0145        	(3.818534e-03 -3.674162e-03 4.480348e-02)	(3.854591e-03 -3.859345e-03 4.480287e-02)	(-3.605663e-05 1.851829e-04 6.107653e-07)
0.0146        	(3.832446e-03 -3.691746e-03 4.519029e-02)	(3.867709e-03 -3.872948e-03 4.518949e-02)	(-3.526346e-05 1.812016e-04 7.981604e-07)
0.0147        	(3.831499e-03 -3.694786e-03 4.543887e-02)	(3.865872e-03 -3.871498e-03 4.543790e-02)	(-3.437279e-05 1.767127e-04 9.687300e-07)
0.0148        	(3.822681e-03 -3.690489e-03 4.561766e-02)	(3.856068e-03 -3.862214e-03 4.561654e-02)	(-3.338643e-05 1.717254e-04 1.123034e-06)
0.0149        	(3.804112e-03 -3.676672e-03 4.570681e-02)	(3.836420e-03 -3.842932e-03 4.570555e-02)	(-3.230833e-05 1.662596e-04 1.260464e-06)
0.015         	(3.775434e-03 -3.653132e-03 4.570161e-02)	(3.806577e-03 -3.813471e-03 4.570023e-02)	(-3.114319e-05 1.603390e-04 1.380197e-06)
0.0151        	(3.737655e-03 -3.620817e-03 4.561093e-02)	(3.767552e-03 -3.774811e-03 4.560945e-02)	(-2.989698e-05 1.539936e-04 1.481340e-06)
0.0152        	(3.691640e-03 -3.580530e-03 4.544221e-02)	(3.720217e-03 -3.727791e-03 4.544065e-02)	(-2.857700e-05 1.472606e-04 1.563719e-06)
0.0153        	(3.637965e-03 -3.532808e-03 4.520014e-02)	(3.665157e-03 -3.672991e-03 4.519852e-02)	(-2.719158e-05 1.401830e-04 1.627626e-06)
0.0154        	(3.576938e-03 -3.477940e-03 4.488656e-02)	(3.602688e-03 -3.610749e-03 4.488488e-02)	(-2.575019e-05 1.328096e-04 1.673813e-06)
0.0155        	(3.509029e-03 -3.416373e-03 4.450516e-02)	(3.533293e-03 -3.541568e-03 4.450345e-02)	(-2.426330e-05 1.251944e-04 1.703476e-06)
0.0156        	(3.435120e-03 -3.348882e-03 4.406332e-02)	(3.457862e-03 -3.466278e-03 4.406160e-02)	(-2.274215e-05 1.173960e-04 1.718173e-06)
0.0157        	(3.355771e-03 -3.276002e-03 4.356556e-02)	(3.376970e-03 -3.385478e-03 4.356384e-02)	(-2.119871e-05 1.094764e-04 1.719586e-06)
0.0158        	(3.271531e-03 -3.198248e-03 4.301638e-02)	(3.291177e-03 -3.299748e-03 4.301467e-02)	(-1.964549e-05 1.015008e-04 1.710013e-06)
0.0159        	(3.182928e-03 -3.116063e-03 4.242016e-02)	(3.201024e-03 -3.209600e-03 4.241847e-02)	(-1.809557e-05 9.353719e-05 1.691086e-06)
0.016         	(3.090669e-03 -3.030108e-03 4.178279e-02)	(3.107232e-03 -3.115763e-03 4.178113e-02)	(-1.656226e-05 8.565491e-05 1.665286e-06)
0.0161        	(2.995591e-03 -2.941146e-03 4.111198e-02)	(3.010650e-03 -3.019070e-03 4.111035e-02)	(-1.505904e-05 7.792412e-05 1.634876e-06)
0.0162        	(2.897964e-03 -2.849396e-03 4.040904e-02)	(2.911563e-03 -2.919811e-03 4.040744e-02)	(-1.359934e-05 7.041466e-05 1.601635e-06)
0.0163        	(2.798788e-03 -2.755765e-03 3.968337e-02)	(2.810984e-03 -2.818960e-03 3.968180e-02)	(-1.219640e-05 6.319534e-05 1.567285e-06)
0.0164        	(2.698377e-03 -2.660542e-03 3.893727e-02)	(2.709240e-03 -2.716875e-03 3.893573e-02)	(-1.086314e-05 5.633313e-05 1.533610e-06)
0.0165        	(2.597298e-03 -2.564226e-03 3.817629e-02)	(2.606910e-03 -2.614118e-03 3.817478e-02)	(-9.612050e-06 4.989269e-05 1.501496e-06)
0.0166        	(2.496264e-03 -2.467469e-03 3.740625e-02)	(2.504719e-03 -2.511405e-03 3.740478e-02)	(-8.455008e-06 4.393544e-05 1.471672e-06)
0.0167        	(2.395811e-03 -2.370737e-03 3.663275e-02)	(2.403214e-03 -2.409256e-03 3.663131e-02)	(-7.403154e-06 3.851880e-05 1.444517e-06)
0.0168        	(2.296298e-03 -2.274399e-03 3.585899e-02)	(2.302765e-03 -2.308095e-03 3.585757e-02)	(-6.466719e-06 3.369548e-05 1.420446e-06)
0.0169        	(2.198052e-03 -2.178742e-03 3.508728e-02)	(2.203707e-03 -2.208254e-03 3.508588e-02)	(-5.654881e-06 2.951276e-05 1.399728e-06)
0.017         	(2.101361e-03 -2.084025e-03 3.432014e-02)	(2.106337e-03 -2.110037e-03 3.431876e-02)	(-4.975741e-06 2.601218e-05 1.382144e-06)
0.0171        	(2.006689e-03 -1.990700e-03 3.356197e-02)	(2.011125e-03 -2.013928e-03 3.356060e-02)	(-4.436127e-06 2.322869e-05 1.367400e-06)
0.0172        	(1.914285e-03 -1.898995e-03 3.281526e-02)	(1.918326e-03 -1.920186e-03 3.281390e-02)	(-4.041652e-06 2.119088e-05 1.354946e-06)
0.0173        	(1.824287e-03 -1.809024e-03 3.208123e-02)	(1.828084e-03 -1.828944e-03 3.207989e-02)	(-3.796506e-06 1.992001e-05 1.344114e-06)
0.0174        	(1.736993e-03 -1.721152e-03 3.136236e-02)	(1.740696e-03 -1.740583e-03 3.136103e-02)	(-3.703522e-06 1.943028e-05 1.334087e-06)
0.0175        	(1.652423e-03 -1.635385e-03 3.065917e-02)	(1.656187e-03 -1.655114e-03 3.065785e-02)	(-3.764080e-06 1.972848e-05 1.324198e-06)
0.0176        	(1.570646e-03 -1.551776e-03 2.997175e-02)	(1.574624e-03 -1.572590e-03 2.997043e-02)	(-3.978114e-06 2.081391e-05 1.313489e-06)
0.0177        	(1.491868e-03 -1.470582e-03 2.930252e-02)	(1.496212e-03 -1.493260e-03 2.930122e-02)	(-4.344085e-06 2.267839e-05 1.301361e-06)
0.0178        	(1.415793e-03 -1.391529e-03 2.864800e-02)	(1.420652e-03 -1.416835e-03 2.864671e-02)	(-4.859035e-06 2.530631e-05 1.286851e-06)
0.0179        	(1.342430e-03 -1.314647e-03 2.800816e-02)	(1.347949e-03 -1.343322e-03 2.800689e-02)	(-5.518616e-06 2.867513e-05 1.269324e-06)
0.018         	(1.272589e-03 -1.240851e-03 2.739020e-02)	(1.278905e-03 -1.273604e-03 2.738895e-02)	(-6.316539e-06 3.275314e-05 1.249953e-06)
0.0181        	(1.205440e-03 -1.169304e-03 2.678611e-02)	(1.212685e-03 -1.206805e-03 2.678488e-02)	(-7.245229e-06 3.750161e-05 1.229149e-06)
0.0182        	(1.140452e-03 -1.099502e-03 2.619070e-02)	(1.148748e-03 -1.142378e-03 2.618949e-02)	(-8.296019e-06 4.287644e-05 1.207646e-06)
0.0183        	(1.077807e-03 -1.031681e-03 2.560536e-02)	(1.087266e-03 -1.080510e-03 2.560417e-02)	(-9.459274e-06 4.882816e-05 1.185475e-06)
0.0184        	(1.017075e-03 -9.654403e-04 2.502585e-02)	(1.027799e-03 -1.020743e-03 2.502468e-02)	(-1.072440e-05 5.530233e-05 1.162474e-06)
0.0185        	(9.585001e-04 -9.010930e-04 2.445347e-02)	(9.705799e-04 -9.633324e-04 2.445233e-02)	(-1.207976e-05 6.223935e-05 1.138817e-06)
0.0186        	(9.018210e-04 -8.384141e-04 2.388539e-02)	(9.153338e-04 -9.079890e-04 2.388428e-02)	(-1.351275e-05 6.957486e-05 1.115102e-06)
0.0187        	(8.466940e-04 -7.771325e-04 2.331764e-02)	(8.617042e-04 -8.543734e-04 2.331655e-02)	(-1.501011e-05 7.724088e-05 1.091752e-06)
0.0188        	(7.930082e-04 -7.171596e-04 2.274863e-02)	(8.095662e-04 -8.023260e-04 2.274756e-02)	(-1.655791e-05 8.516641e-05 1.069867e-06)
0.0189        	(7.401727e-04 -6.579751e-04 2.217188e-02)	(7.583146e-04 -7.512534e-04 2.217083e-02)	(-1.814187e-05 9.327830e-05 1.049674e-06)
0.019         	(6.882907e-04 -5.997153e-04 2.158765e-02)	(7.080381e-04 -7.012173e-04 2.158662e-02)	(-1.974741e-05 1.015020e-04 1.031852e-06)
0.0191        	(6.369488e-04 -5.420332e-04 2.099047e-02)	(6.583086e-04 -6.517959e-04 2.098946e-02)	(-2.135988e-05 1.097626e-04 1.016970e-06)
0.0192        	(5.858742e-04 -4.846850e-04 2.037756e-02)	(6.088389e-04 -6.026704e-04 2.037656e-02)	(-2.296471e-05 1.179854e-04 1.005077e-06)
0.0193        	(5.352403e-04 -4.279141e-04 1.974972e-02)	(5.597878e-04 -5.540107e-04 1.974872e-02)	(-2.454752e-05 1.260966e-04 9.967866e-07)
0.0194        	(4.845269e-04 -3.712312e-04 1.910021e-02)	(5.106213e-04 -5.052563e-04 1.909922e-02)	(-2.609441e-05 1.340251e-04 9.920328e-07)
0.0195        	(4.337734e-04 -3.147279e-04 1.842829e-02)	(4.613654e-04 -4.564298e-04 1.842730e-02)	(-2.759197e-05 1.417020e-04 9.909740e-07)
0.0196        	(3.826805e-04 -2.581512e-04 1.773106e-02)	(4.117080e-04 -4.072131e-04 1.773006e-02)	(-2.902745e-05 1.490618e-04 9.936748e-07)
0.0197        	(3.311526e-04 -2.014262e-04 1.700579e-02)	(3.615416e-04 -3.574696e-04 1.700479e-02)	(-3.038896e-05 1.560435e-04 9.999618e-07)
0.0198        	(2.790417e-04 -1.444689e-04 1.624930e-02)	(3.107072e-04 -3.070592e-04 1.624829e-02)	(-3.166549e-05 1.625904e-04 1.009697e-06)
0.0199        	(2.264065e-04 -8.735258e-05 1.546254e-02)	(2.592536e-04 -2.560038e-04 1.546151e-02)	(-3.284708e-05 1.686512e-04 1.022622e-06)
0.02          	(1.731204e-04 -2.998757e-05 1.464223e-02)	(2.070452e-04 -2.041680e-04 1.464119e-02)	(-3.392485e-05 1.741805e-04 1.038565e-06)
