# Time Dx Dy Dz magD
0.0002 0 7.52757e-10 -1.05314e-09 1.29451e-09
0.0002 0 7.52757e-10 -1.05314e-09 1.29451e-09
0.0004 0 2.57648e-09 -6.15009e-09 6.66797e-09
0.0004 0 2.57648e-09 -6.15009e-09 6.66797e-09
0.0006 0 6.97545e-09 -2.21727e-08 2.32441e-08
0.0006 0 6.97545e-09 -2.21727e-08 2.32441e-08
0.0008 0 1.68211e-08 -6.83701e-08 7.0409e-08
0.0008 0 1.68211e-08 -6.83701e-08 7.0409e-08
0.001 0 3.65426e-08 -1.89949e-07 1.93432e-07
0.001 0 3.65426e-08 -1.89949e-07 1.93432e-07
0.0012 0 7.25838e-08 -4.77125e-07 4.82614e-07
0.0012 0 7.25838e-08 -4.77125e-07 4.82614e-07
0.0014 0 1.34138e-07 -1.08225e-06 1.09053e-06
0.0014 0 1.34138e-07 -1.08225e-06 1.09053e-06
0.0016 0 2.33293e-07 -2.21994e-06 2.23217e-06
0.0016 0 2.33293e-07 -2.21994e-06 2.23217e-06
0.0018 0 3.84558e-07 -4.13539e-06 4.15324e-06
0.0018 0 3.84558e-07 -4.13539e-06 4.15324e-06
0.002 0 6.04867e-07 -7.04006e-06 7.066e-06
0.002 0 6.04867e-07 -7.04006e-06 7.066e-06
0.0022 0 9.1465e-07 -1.10374e-05 1.10753e-05
0.0022 0 9.1465e-07 -1.10374e-05 1.10753e-05
0.0024 0 1.34032e-06 -1.60768e-05 1.61326e-05
0.0024 0 1.34032e-06 -1.60768e-05 1.61326e-05
0.0026 0 1.91714e-06 -2.19636e-05 2.20471e-05
0.0026 0 1.91714e-06 -2.19636e-05 2.20471e-05
0.0028 0 2.6908e-06 -2.8423e-05 2.85501e-05
0.0028 0 2.6908e-06 -2.8423e-05 2.85501e-05
0.003 0 3.71656e-06 -3.51818e-05 3.53776e-05
0.003 0 3.71656e-06 -3.51818e-05 3.53776e-05
0.0032 0 5.0565e-06 -4.20263e-05 4.23294e-05
0.0032 0 5.0565e-06 -4.20263e-05 4.23294e-05
0.0034 0 6.77642e-06 -4.88156e-05 4.92837e-05
0.0034 0 6.77642e-06 -4.88156e-05 4.92837e-05
0.0036 0 8.94582e-06 -5.5459e-05 5.61759e-05
0.0036 0 8.94582e-06 -5.5459e-05 5.61759e-05
0.0038 0 1.16434e-05 -6.18782e-05 6.29641e-05
0.0038 0 1.16434e-05 -6.18782e-05 6.29641e-05
0.004 0 1.49652e-05 -6.79695e-05 6.95975e-05
0.004 0 1.49652e-05 -6.79695e-05 6.95975e-05
0.0042 0 1.90289e-05 -7.35673e-05 7.59884e-05
0.0042 0 1.90289e-05 -7.35673e-05 7.59884e-05
0.0044 0 2.39627e-05 -7.84063e-05 8.19864e-05
0.0044 0 2.39627e-05 -7.84063e-05 8.19864e-05
0.0046 0 2.98755e-05 -8.21002e-05 8.7367e-05
0.0046 0 2.98755e-05 -8.21002e-05 8.7367e-05
0.0048 0 3.68093e-05 -8.41622e-05 9.18597e-05
0.0048 0 3.68093e-05 -8.41622e-05 9.18597e-05
0.005 0 4.46919e-05 -8.40915e-05 9.52299e-05
0.005 0 4.46919e-05 -8.40915e-05 9.52299e-05
0.0052 0 5.33177e-05 -8.15098e-05 9.73993e-05
0.0052 0 5.33177e-05 -8.15098e-05 9.73993e-05
0.0054 0 6.23827e-05 -7.62937e-05 9.85512e-05
0.0054 0 6.23827e-05 -7.62937e-05 9.85512e-05
0.0056 0 7.15752e-05 -6.86334e-05 9.91643e-05
0.0056 0 7.15752e-05 -6.86334e-05 9.91643e-05
0.0058 0 8.06874e-05 -5.89805e-05 9.99458e-05
0.0058 0 8.06874e-05 -5.89805e-05 9.99458e-05
0.006 0 8.969e-05 -4.79061e-05 0.000101682
0.006 0 8.969e-05 -4.79061e-05 0.000101682
0.0062 0 9.87162e-05 -3.59332e-05 0.000105053
0.0062 0 9.87162e-05 -3.59332e-05 0.000105053
0.0064 0 0.000107934 -2.34144e-05 0.000110445
0.0064 0 0.000107934 -2.34144e-05 0.000110445
0.0066 0 0.000117347 -1.04991e-05 0.000117816
0.0066 0 0.000117347 -1.04991e-05 0.000117816
0.0068 0 0.000126606 2.80743e-06 0.000126638
0.0068 0 0.000126606 2.80743e-06 0.000126638
0.007 0 0.000134942 1.6526e-05 0.000135951
0.007 0 0.000134942 1.6526e-05 0.000135951
0.0072 0 0.000141251 3.05738e-05 0.000144522
0.0072 0 0.000141251 3.05738e-05 0.000144522
0.0074 0 0.000144341 4.46735e-05 0.000151096
0.0074 0 0.000144341 4.46735e-05 0.000151096
0.0076 0 0.000143226 5.83406e-05 0.000154652
0.0076 0 0.000143226 5.83406e-05 0.000154652
0.0078 0 0.000137282 7.09258e-05 0.000154521
0.0078 0 0.000137282 7.09258e-05 0.000154521
0.008 0 0.000126427 8.16722e-05 0.000150513
0.008 0 0.000126427 8.16722e-05 0.000150513
0.0082 0 0.000111252 8.98483e-05 0.000143003
0.0082 0 0.000111252 8.98483e-05 0.000143003
0.0084 0 9.28964e-05 9.49116e-05 0.000132808
0.0084 0 9.28964e-05 9.49116e-05 0.000132808
0.0086 0 7.28053e-05 9.66258e-05 0.000120984
0.0086 0 7.28053e-05 9.66258e-05 0.000120984
0.0088 0 5.24348e-05 9.51053e-05 0.000108602
0.0088 0 5.24348e-05 9.51053e-05 0.000108602
0.009 0 3.29796e-05 9.07785e-05 9.65835e-05
0.009 0 3.29796e-05 9.07785e-05 9.65835e-05
0.0092 0 1.52078e-05 8.42781e-05 8.56392e-05
0.0092 0 1.52078e-05 8.42781e-05 8.56392e-05
0.0094 0 -5.52106e-07 7.62917e-05 7.62937e-05
0.0094 0 -5.52106e-07 7.62917e-05 7.62937e-05
0.0096 0 -1.42786e-05 6.74248e-05 6.89201e-05
0.0096 0 -1.42786e-05 6.74248e-05 6.89201e-05
0.0098 0 -2.60656e-05 5.81262e-05 6.3703e-05
0.0098 0 -2.60656e-05 5.81262e-05 6.3703e-05
0.01 0 -3.59535e-05 4.86912e-05 6.05267e-05
0.01 0 -3.59535e-05 4.86912e-05 6.05267e-05
0.0102 0 -4.38822e-05 3.93113e-05 5.89154e-05
0.0102 0 -4.38822e-05 3.93113e-05 5.89154e-05
0.0104 0 -4.97171e-05 3.01309e-05 5.81349e-05
0.0104 0 -4.97171e-05 3.01309e-05 5.81349e-05
0.0106 0 -5.33131e-05 2.12854e-05 5.74051e-05
0.0106 0 -5.33131e-05 2.12854e-05 5.74051e-05
0.0108 0 -5.45139e-05 1.2918e-05 5.60236e-05
0.0108 0 -5.45139e-05 1.2918e-05 5.60236e-05
0.011 0 -5.31385e-05 5.22553e-06 5.33948e-05
0.011 0 -5.31385e-05 5.22553e-06 5.33948e-05
0.0112 0 -4.91337e-05 -1.50439e-06 4.91567e-05
0.0112 0 -4.91337e-05 -1.50439e-06 4.91567e-05
0.0114 0 -4.27425e-05 -6.94312e-06 4.33028e-05
0.0114 0 -4.27425e-05 -6.94312e-06 4.33028e-05
0.0116 0 -3.45667e-05 -1.08311e-05 3.62239e-05
0.0116 0 -3.45667e-05 -1.08311e-05 3.62239e-05
0.0118 0 -2.54513e-05 -1.30704e-05 2.86113e-05
0.0118 0 -2.54513e-05 -1.30704e-05 2.86113e-05
0.012 0 -1.63308e-05 -1.37638e-05 2.13574e-05
0.012 0 -1.63308e-05 -1.37638e-05 2.13574e-05
0.0122 0 -8.06975e-06 -1.32082e-05 1.54783e-05
0.0122 0 -8.06975e-06 -1.32082e-05 1.54783e-05
0.0124 0 -1.36608e-06 -1.18503e-05 1.19288e-05
0.0124 0 -1.36608e-06 -1.18503e-05 1.19288e-05
0.0126 0 3.30494e-06 -1.02204e-05 1.07415e-05
0.0126 0 3.30494e-06 -1.02204e-05 1.07415e-05
0.0128 0 5.71595e-06 -8.86058e-06 1.05443e-05
0.0128 0 5.71595e-06 -8.86058e-06 1.05443e-05
0.013 0 5.87089e-06 -8.24821e-06 1.01242e-05
0.013 0 5.87089e-06 -8.24821e-06 1.01242e-05
0.0132 0 3.90435e-06 -8.74035e-06 9.57276e-06
0.0132 0 3.90435e-06 -8.74035e-06 9.57276e-06
0.0134 0 6.30225e-08 -1.058e-05 1.05802e-05
0.0134 0 6.30225e-08 -1.058e-05 1.05802e-05
0.0136 0 -5.25236e-06 -1.38878e-05 1.48478e-05
0.0136 0 -5.25236e-06 -1.38878e-05 1.48478e-05
0.0138 0 -1.15526e-05 -1.86411e-05 2.19306e-05
0.0138 0 -1.15526e-05 -1.86411e-05 2.19306e-05
0.014 0 -1.83335e-05 -2.46881e-05 3.07509e-05
0.014 0 -1.83335e-05 -2.46881e-05 3.07509e-05
0.0142 0 -2.51513e-05 -3.17846e-05 4.05321e-05
0.0142 0 -2.51513e-05 -3.17846e-05 4.05321e-05
0.0144 0 -3.16641e-05 -3.96284e-05 5.07251e-05
0.0144 0 -3.16641e-05 -3.96284e-05 5.07251e-05
0.0146 0 -3.76535e-05 -4.78846e-05 6.09157e-05
0.0146 0 -3.76535e-05 -4.78846e-05 6.09157e-05
0.0148 0 -4.30192e-05 -5.6201e-05 7.07757e-05
0.0148 0 -4.30192e-05 -5.6201e-05 7.07757e-05
0.015 0 -4.77553e-05 -6.42137e-05 8.00248e-05
0.015 0 -4.77553e-05 -6.42137e-05 8.00248e-05
0.0152 0 -5.19196e-05 -7.15454e-05 8.83991e-05
0.0152 0 -5.19196e-05 -7.15454e-05 8.83991e-05
0.0154 0 -5.56113e-05 -7.78043e-05 9.56354e-05
0.0154 0 -5.56113e-05 -7.78043e-05 9.56354e-05
0.0156 0 -5.89566e-05 -8.25925e-05 0.000101476
0.0156 0 -5.89566e-05 -8.25925e-05 0.000101476
0.0158 0 -6.20974e-05 -8.55268e-05 0.000105693
0.0158 0 -6.20974e-05 -8.55268e-05 0.000105693
0.016 0 -6.51728e-05 -8.6268e-05 0.000108119
0.016 0 -6.51728e-05 -8.6268e-05 0.000108119
0.0162 0 -6.82966e-05 -8.45522e-05 0.00010869
0.0162 0 -6.82966e-05 -8.45522e-05 0.00010869
0.0164 0 -7.15381e-05 -8.02147e-05 0.000107481
0.0164 0 -7.15381e-05 -8.02147e-05 0.000107481
0.0166 0 -7.491e-05 -7.32065e-05 0.000104741
0.0166 0 -7.491e-05 -7.32065e-05 0.000104741
0.0168 0 -7.83681e-05 -6.36007e-05 0.000100929
0.0168 0 -7.83681e-05 -6.36007e-05 0.000100929
0.017 0 -8.18247e-05 -5.15907e-05 9.6731e-05
0.017 0 -8.18247e-05 -5.15907e-05 9.6731e-05
0.0172 0 -8.51604e-05 -3.74784e-05 9.30426e-05
0.0172 0 -8.51604e-05 -3.74784e-05 9.30426e-05
0.0174 0 -8.82209e-05 -2.16546e-05 9.08397e-05
0.0174 0 -8.82209e-05 -2.16546e-05 9.08397e-05
0.0176 0 -9.08125e-05 -4.57813e-06 9.09279e-05
0.0176 0 -9.08125e-05 -4.57813e-06 9.09279e-05
0.0178 0 -9.27173e-05 1.32422e-05 9.36582e-05
0.0178 0 -9.27173e-05 1.32422e-05 9.36582e-05
0.018 0 -9.3722e-05 3.1263e-05 9.87987e-05
0.018 0 -9.3722e-05 3.1263e-05 9.87987e-05
0.0182 0 -9.36302e-05 4.89245e-05 0.000105642
0.0182 0 -9.36302e-05 4.89245e-05 0.000105642
0.0184 0 -9.22546e-05 6.5666e-05 0.000113238
0.0184 0 -9.22546e-05 6.5666e-05 0.000113238
0.0186 0 -8.94549e-05 8.09388e-05 0.000120637
0.0186 0 -8.94549e-05 8.09388e-05 0.000120637
0.0188 0 -8.51645e-05 9.4231e-05 0.000127014
0.0188 0 -8.51645e-05 9.4231e-05 0.000127014
0.019 0 -7.93683e-05 0.0001051 0.000131701
0.019 0 -7.93683e-05 0.0001051 0.000131701
0.0192 0 -7.20791e-05 0.000113185 0.000134187
0.0192 0 -7.20791e-05 0.000113185 0.000134187
0.0194 0 -6.33233e-05 0.000118215 0.000134107
0.0194 0 -6.33233e-05 0.000118215 0.000134107
0.0196 0 -5.31462e-05 0.000120013 0.000131254
0.0196 0 -5.31462e-05 0.000120013 0.000131254
0.0198 0 -4.16335e-05 0.000118505 0.000125606
0.0198 0 -4.16335e-05 0.000118505 0.000125606
0.02 0 -2.89352e-05 0.000113731 0.000117354
0.02 0 -2.89352e-05 0.000113731 0.000117354
