# Time forceX forceY forceZ normalForce
0.0002 0.0122326 0.0122326 4.55166e-05 -0.0192191
0.0002 0.0122326 0.0122326 4.55166e-05 -0.0192191
0.0004 0.0162139 0.0162139 9.32525e-05 -0.0254711
0.0004 0.0162139 0.0162139 9.32525e-05 -0.0254711
0.0006 0.0226396 0.0226396 0.000140855 -0.0355593
0.0006 0.0226396 0.0226396 0.000140855 -0.0355593
0.0008 0.0281426 0.0281426 0.000190065 -0.0441992
0.0008 0.0281426 0.0281426 0.000190065 -0.0441992
0.001 0.0341618 0.0341618 0.000240699 -0.0536515
0.001 0.0341618 0.0341618 0.000240699 -0.0536515
0.0012 0.0408482 0.0408482 0.000292209 -0.0641509
0.0012 0.0408482 0.0408482 0.000292209 -0.0641509
0.0014 0.0478143 0.0478144 0.000344068 -0.0750889
0.0014 0.0478143 0.0478144 0.000344068 -0.0750889
0.0016 0.0549587 0.0549588 0.000395821 -0.0863065
0.0016 0.0549587 0.0549588 0.000395821 -0.0863065
0.0018 0.062289 0.0622891 0.000447087 -0.0978159
0.0018 0.062289 0.0622891 0.000447087 -0.0978159
0.002 0.0697367 0.0697368 0.000497555 -0.10951
0.002 0.0697367 0.0697368 0.000497555 -0.10951
0.0022 0.0772034 0.0772034 0.000546977 -0.121234
0.0022 0.0772034 0.0772034 0.000546977 -0.121234
0.0024 0.0846584 0.0846584 0.000595094 -0.13294
0.0024 0.0846584 0.0846584 0.000595094 -0.13294
0.0026 0.0920891 0.0920891 0.000641543 -0.144607
0.0026 0.0920891 0.0920891 0.000641543 -0.144607
0.0028 0.0994671 0.099467 0.000685798 -0.156192
0.0028 0.0994671 0.099467 0.000685798 -0.156192
0.003 0.106768 0.106768 0.000727158 -0.167656
0.003 0.106768 0.106768 0.000727158 -0.167656
0.0032 0.104004 0.104004 0.000735114 -0.163306
0.0032 0.104004 0.104004 0.000735114 -0.163306
0.0034 0.104968 0.104968 0.000727634 -0.164819
0.0034 0.104968 0.104968 0.000727634 -0.164819
0.0036 0.108328 0.108328 0.000710272 -0.170098
0.0036 0.108328 0.108328 0.000710272 -0.170098
0.0038 0.11078 0.11078 0.000684327 -0.173951
0.0038 0.11078 0.11078 0.000684327 -0.173951
0.004 0.111559 0.111559 0.000650916 -0.175175
0.004 0.111559 0.111559 0.000650916 -0.175175
0.0042 0.111592 0.111592 0.000611786 -0.175228
0.0042 0.111592 0.111592 0.000611786 -0.175228
0.0044 0.111513 0.111514 0.000568843 -0.175106
0.0044 0.111513 0.111514 0.000568843 -0.175106
0.0046 0.111295 0.111295 0.00052391 -0.174765
0.0046 0.111295 0.111295 0.00052391 -0.174765
0.0048 0.110765 0.110765 0.000478576 -0.173936
0.0048 0.110765 0.110765 0.000478576 -0.173936
0.005 0.110007 0.110007 0.000434087 -0.172745
0.005 0.110007 0.110007 0.000434087 -0.172745
0.0052 0.109208 0.109207 0.000391315 -0.171491
0.0052 0.109208 0.109207 0.000391315 -0.171491
0.0054 0.10846 0.10846 0.000350848 -0.170318
0.0054 0.10846 0.10846 0.000350848 -0.170318
0.0056 0.107707 0.107707 0.000313225 -0.169136
0.0056 0.107707 0.107707 0.000313225 -0.169136
0.0058 0.106947 0.106947 0.000279162 -0.167943
0.0058 0.106947 0.106947 0.000279162 -0.167943
0.006 0.10621 0.10621 0.000249711 -0.166787
0.006 0.10621 0.10621 0.000249711 -0.166787
0.0062 0.105547 0.105547 0.000226233 -0.165745
0.0062 0.105547 0.105547 0.000226233 -0.165745
0.0064 0.104905 0.104905 0.00021026 -0.164736
0.0064 0.104905 0.104905 0.00021026 -0.164736
0.0066 0.104253 0.104253 0.000203222 -0.163712
0.0066 0.104253 0.104253 0.000203222 -0.163712
0.0068 0.103615 0.103615 0.000206089 -0.162709
0.0068 0.103615 0.103615 0.000206089 -0.162709
0.007 0.102973 0.102973 0.00021906 -0.161699
0.007 0.102973 0.102973 0.00021906 -0.161699
0.0072 0.102266 0.102266 0.000241379 -0.160588
0.0072 0.102266 0.102266 0.000241379 -0.160588
0.0074 0.101468 0.101468 0.000271385 -0.159334
0.0074 0.101468 0.101468 0.000271385 -0.159334
0.0076 0.100561 0.100561 0.000306768 -0.15791
0.0076 0.100561 0.100561 0.000306768 -0.15791
0.0078 0.0995242 0.099524 0.000344986 -0.15628
0.0078 0.0995242 0.099524 0.000344986 -0.15628
0.008 0.0983027 0.0983026 0.000383695 -0.154362
0.008 0.0983027 0.0983026 0.000383695 -0.154362
0.0082 0.09688 0.0968799 0.000421047 -0.152128
0.0082 0.09688 0.0968799 0.000421047 -0.152128
0.0084 0.0952144 0.0952144 0.000455793 -0.149512
0.0084 0.0952144 0.0952144 0.000455793 -0.149512
0.0086 0.0932819 0.0932819 0.000487186 -0.146478
0.0086 0.0932819 0.0932819 0.000487186 -0.146478
0.0088 0.0910527 0.0910527 0.000514779 -0.142978
0.0088 0.0910527 0.0910527 0.000514779 -0.142978
0.009 0.0884637 0.0884637 0.0005382 -0.138913
0.009 0.0884637 0.0884637 0.0005382 -0.138913
0.0092 0.0854892 0.0854892 0.000556995 -0.134242
0.0092 0.0854892 0.0854892 0.000556995 -0.134242
0.0094 0.0820705 0.0820703 0.000570573 -0.128874
0.0094 0.0820705 0.0820703 0.000570573 -0.128874
0.0096 0.0781793 0.0781792 0.000578264 -0.122764
0.0096 0.0781793 0.0781792 0.000578264 -0.122764
0.0098 0.0737661 0.0737662 0.000579454 -0.115834
0.0098 0.0737661 0.0737662 0.000579454 -0.115834
0.01 0.0687944 0.0687944 0.000573788 -0.108026
0.01 0.0687944 0.0687944 0.000573788 -0.108026
0.0102 0.0632071 0.0632073 0.000561341 -0.0992521
0.0102 0.0632071 0.0632073 0.000561341 -0.0992521
0.0104 0.0569764 0.0569767 0.00054277 -0.0894671
0.0104 0.0569764 0.0569767 0.00054277 -0.0894671
0.0106 0.0500805 0.0500806 0.00051932 -0.0786377
0.0106 0.0500805 0.0500806 0.00051932 -0.0786377
0.0108 0.0424852 0.0424853 0.000492722 -0.0667103
0.0108 0.0424852 0.0424853 0.000492722 -0.0667103
0.011 0.0341905 0.0341906 0.000464983 -0.0536844
0.011 0.0341905 0.0341906 0.000464983 -0.0536844
0.0112 0.0252115 0.0252118 0.000438082 -0.0395834
0.0112 0.0252115 0.0252118 0.000438082 -0.0395834
0.0114 0.0155933 0.0155935 0.000413765 -0.0244791
0.0114 0.0155933 0.0155935 0.000413765 -0.0244791
0.0116 0.0053832 0.0053835 0.00039333 -0.00844649
0.0116 0.0053832 0.0053835 0.00039333 -0.00844649
0.0118 -0.00538778 -0.00538756 0.000377562 0.00846697
0.0118 -0.00538778 -0.00538756 0.000377562 0.00846697
0.012 -0.0166398 -0.0166399 0.000366742 0.0261358
0.012 -0.0166398 -0.0166399 0.000366742 0.0261358
0.0122 -0.0282814 -0.0282815 0.000360777 0.0444153
0.0122 -0.0282814 -0.0282815 0.000360777 0.0444153
0.0124 -0.0402029 -0.040203 0.000359359 0.0631337
0.0124 -0.0402029 -0.040203 0.000359359 0.0631337
0.0126 -0.0522468 -0.0522469 0.000362105 0.0820441
0.0126 -0.0522468 -0.0522469 0.000362105 0.0820441
0.0128 -0.064205 -0.064205 0.000368636 0.10082
0.0128 -0.064205 -0.064205 0.000368636 0.10082
0.013 -0.075848 -0.075848 0.000378552 0.119101
0.013 -0.075848 -0.075848 0.000378552 0.119101
0.0132 -0.0869305 -0.0869307 0.000391346 0.136502
0.0132 -0.0869305 -0.0869307 0.000391346 0.136502
0.0134 -0.0972384 -0.0972386 0.000406288 0.152687
0.0134 -0.0972384 -0.0972386 0.000406288 0.152687
0.0136 -0.106578 -0.106578 0.000422337 0.167352
0.0136 -0.106578 -0.106578 0.000422337 0.167352
0.0138 -0.114816 -0.114817 0.000438112 0.180289
0.0138 -0.114816 -0.114817 0.000438112 0.180289
0.014 -0.121865 -0.121865 0.000451906 0.191357
0.014 -0.121865 -0.121865 0.000451906 0.191357
0.0142 -0.127653 -0.127654 0.00046185 0.200447
0.0142 -0.127653 -0.127654 0.00046185 0.200447
0.0144 -0.132163 -0.132163 0.000466086 0.20753
0.0144 -0.132163 -0.132163 0.000466086 0.20753
0.0146 -0.135387 -0.135387 0.000463031 0.212593
0.0146 -0.135387 -0.135387 0.000463031 0.212593
0.0148 -0.137243 -0.137243 0.000451547 0.215507
0.0148 -0.137243 -0.137243 0.000451547 0.215507
0.015 -0.137667 -0.137667 0.000430917 0.216169
0.015 -0.137667 -0.137667 0.000430917 0.216169
0.0152 -0.136826 -0.136826 0.000401117 0.214849
0.0152 -0.136826 -0.136826 0.000401117 0.214849
0.0154 -0.13459 -0.13459 0.000362796 0.21134
0.0154 -0.13459 -0.13459 0.000362796 0.21134
0.0156 -0.130986 -0.130986 0.000317071 0.205683
0.0156 -0.130986 -0.130986 0.000317071 0.205683
0.0158 -0.126242 -0.126242 0.000265452 0.198236
0.0158 -0.126242 -0.126242 0.000265452 0.198236
0.016 -0.120521 -0.120522 0.000209769 0.189255
0.016 -0.120521 -0.120522 0.000209769 0.189255
0.0162 -0.114026 -0.114026 0.00015203 0.179057
0.0162 -0.114026 -0.114026 0.00015203 0.179057
0.0164 -0.107041 -0.107041 9.42938e-05 0.16809
0.0164 -0.107041 -0.107041 9.42938e-05 0.16809
0.0166 -0.0998966 -0.0998965 3.86168e-05 0.156873
0.0166 -0.0998966 -0.0998965 3.86168e-05 0.156873
0.0168 -0.0928747 -0.0928749 -1.29439e-05 0.145848
0.0168 -0.0928747 -0.0928749 -1.29439e-05 0.145848
0.017 -0.0861219 -0.086122 -5.83683e-05 0.135241
0.017 -0.0861219 -0.086122 -5.83683e-05 0.135241
0.0172 -0.0799761 -0.0799762 -9.57151e-05 0.125587
0.0172 -0.0799761 -0.0799762 -9.57151e-05 0.125587
0.0174 -0.0745502 -0.0745503 -0.000123178 0.117068
0.0174 -0.0745502 -0.0745503 -0.000123178 0.117068
0.0176 -0.0697237 -0.0697239 -0.000139194 0.109489
0.0176 -0.0697237 -0.0697239 -0.000139194 0.109489
0.0178 -0.0655455 -0.0655458 -0.000142533 0.102927
0.0178 -0.0655455 -0.0655458 -0.000142533 0.102927
0.018 -0.062132 -0.0621322 -0.000132459 0.097566
0.018 -0.062132 -0.0621322 -0.000132459 0.097566
0.0182 -0.0594751 -0.0594754 -0.000108863 0.0933988
0.0182 -0.0594751 -0.0594754 -0.000108863 0.0933988
0.0184 -0.057234 -0.0572343 -7.22454e-05 0.089882
0.0184 -0.057234 -0.0572343 -7.22454e-05 0.089882
0.0186 -0.0553664 -0.0553666 -2.37656e-05 0.0869493
0.0186 -0.0553664 -0.0553666 -2.37656e-05 0.0869493
0.0188 -0.0539977 -0.0539977 3.47899e-05 0.0847988
0.0188 -0.0539977 -0.0539977 3.47899e-05 0.0847988
0.019 -0.0529524 -0.0529526 0.000101156 0.0831563
0.019 -0.0529524 -0.0529526 0.000101156 0.0831563
0.0192 -0.0519631 -0.0519634 0.000172716 0.0816009
0.0192 -0.0519631 -0.0519634 0.000172716 0.0816009
0.0194 -0.050891 -0.0508913 0.000246632 0.0799148
0.0194 -0.050891 -0.0508913 0.000246632 0.0799148
0.0196 -0.0496285 -0.0496286 0.000320005 0.0779301
0.0196 -0.0496285 -0.0496286 0.000320005 0.0779301
0.0198 -0.0480161 -0.0480161 0.000389977 0.0753944
0.0198 -0.0480161 -0.0480161 0.000389977 0.0753944
0.02 -0.0458995 -0.0458998 0.000453848 0.0720676
0.02 -0.0458995 -0.0458998 0.000453848 0.0720676
