# Force       
# CofR        : (5.000000e-01 1.000000e-01 0.000000e+00)
#
# Time        	(total_x total_y total_z)	(pressure_x pressure_y pressure_z)	(viscous_x viscous_y viscous_z)
2.5e-05       	(3.075590e-03 3.075590e-03 3.722071e-06)	(3.076075e-03 3.076075e-03 -2.123816e-06)	(-4.850638e-07 -4.850648e-07 5.845888e-06)
5e-05         	(5.924443e-03 5.924444e-03 4.777253e-06)	(5.925046e-03 5.925047e-03 -6.563086e-06)	(-6.030617e-07 -6.030650e-07 1.134034e-05)
7.5e-05       	(8.504544e-03 8.504544e-03 5.412077e-06)	(8.505279e-03 8.505279e-03 -1.151222e-05)	(-7.351276e-07 -7.351330e-07 1.692429e-05)
0.0001        	(1.070298e-02 1.070298e-02 5.827762e-06)	(1.070384e-02 1.070383e-02 -1.684434e-05)	(-8.545765e-07 -8.545827e-07 2.267210e-05)
0.000125      	(1.244107e-02 1.244107e-02 5.620497e-06)	(1.244203e-02 1.244204e-02 -2.287791e-05)	(-9.644633e-07 -9.644722e-07 2.849841e-05)
0.00015       	(1.371394e-02 1.371395e-02 4.310046e-06)	(1.371501e-02 1.371502e-02 -2.997154e-05)	(-1.070386e-06 -1.070401e-06 3.428159e-05)
0.000175      	(1.457434e-02 1.457434e-02 1.476962e-06)	(1.457551e-02 1.457551e-02 -3.846183e-05)	(-1.174153e-06 -1.174171e-06 3.993880e-05)
0.0002        	(1.510189e-02 1.510189e-02 -3.101740e-06)	(1.510316e-02 1.510316e-02 -4.855904e-05)	(-1.274731e-06 -1.274751e-06 4.545730e-05)
0.000225      	(1.538074e-02 1.538074e-02 -9.387919e-06)	(1.538211e-02 1.538211e-02 -6.027470e-05)	(-1.370105e-06 -1.370128e-06 5.088678e-05)
0.00025       	(1.548940e-02 1.548940e-02 -1.713056e-05)	(1.549086e-02 1.549086e-02 -7.343851e-05)	(-1.458246e-06 -1.458269e-06 5.630795e-05)
0.000275      	(1.549950e-02 1.549948e-02 -2.597984e-05)	(1.550103e-02 1.550101e-02 -8.777702e-05)	(-1.537543e-06 -1.537560e-06 6.179717e-05)
0.0003        	(1.547573e-02 1.547573e-02 -3.559828e-05)	(1.547734e-02 1.547734e-02 -1.030001e-04)	(-1.606912e-06 -1.606929e-06 6.740178e-05)
0.000325      	(1.547529e-02 1.547528e-02 -4.572315e-05)	(1.547695e-02 1.547694e-02 -1.188549e-04)	(-1.665705e-06 -1.665719e-06 7.313173e-05)
0.00035       	(1.554623e-02 1.554621e-02 -5.617137e-05)	(1.554795e-02 1.554793e-02 -1.351373e-04)	(-1.713744e-06 -1.713749e-06 7.896594e-05)
0.000375      	(1.572403e-02 1.572404e-02 -6.681053e-05)	(1.572579e-02 1.572579e-02 -1.516773e-04)	(-1.751198e-06 -1.751202e-06 8.486677e-05)
0.0004        	(1.602945e-02 1.602946e-02 -7.752164e-05)	(1.603122e-02 1.603124e-02 -1.683173e-04)	(-1.778579e-06 -1.778589e-06 9.079567e-05)
0.000425      	(1.646898e-02 1.646899e-02 -8.817303e-05)	(1.647077e-02 1.647078e-02 -1.848978e-04)	(-1.796646e-06 -1.796661e-06 9.672474e-05)
0.00045       	(1.703632e-02 1.703632e-02 -9.861759e-05)	(1.703812e-02 1.703813e-02 -2.012596e-04)	(-1.806375e-06 -1.806393e-06 1.026420e-04)
0.000475      	(1.771481e-02 1.771484e-02 -1.087075e-04)	(1.771662e-02 1.771665e-02 -2.172582e-04)	(-1.808842e-06 -1.808874e-06 1.085507e-04)
0.0005        	(1.848259e-02 1.848267e-02 -1.183199e-04)	(1.848440e-02 1.848447e-02 -2.327843e-04)	(-1.805145e-06 -1.805212e-06 1.144644e-04)
0.000525      	(1.931559e-02 1.931559e-02 -1.273804e-04)	(1.931739e-02 1.931739e-02 -2.477818e-04)	(-1.796333e-06 -1.796411e-06 1.204014e-04)
0.00055       	(2.018902e-02 2.018901e-02 -1.358779e-04)	(2.019081e-02 2.019079e-02 -2.622566e-04)	(-1.783315e-06 -1.783392e-06 1.263787e-04)
0.000575      	(2.108081e-02 2.108080e-02 -1.438707e-04)	(2.108258e-02 2.108257e-02 -2.762795e-04)	(-1.766757e-06 -1.766833e-06 1.324087e-04)
0.0006        	(2.197439e-02 2.197439e-02 -1.514736e-04)	(2.197614e-02 2.197614e-02 -2.899712e-04)	(-1.747197e-06 -1.747273e-06 1.384976e-04)
0.000625      	(2.285281e-02 2.285274e-02 -1.588342e-04)	(2.285453e-02 2.285447e-02 -3.034801e-04)	(-1.724983e-06 -1.725033e-06 1.446459e-04)
0.00065       	(2.370700e-02 2.370691e-02 -1.661078e-04)	(2.370870e-02 2.370861e-02 -3.169576e-04)	(-1.700318e-06 -1.700323e-06 1.508498e-04)
0.000675      	(2.452969e-02 2.452972e-02 -1.734230e-04)	(2.453137e-02 2.453140e-02 -3.305258e-04)	(-1.673298e-06 -1.673305e-06 1.571029e-04)
0.0007        	(2.531778e-02 2.531769e-02 -1.808632e-04)	(2.531943e-02 2.531934e-02 -3.442614e-04)	(-1.644098e-06 -1.644065e-06 1.633982e-04)
0.000725      	(2.607025e-02 2.607018e-02 -1.884555e-04)	(2.607186e-02 2.607179e-02 -3.581846e-04)	(-1.612812e-06 -1.612738e-06 1.697291e-04)
0.00075       	(2.679141e-02 2.679133e-02 -1.961583e-04)	(2.679299e-02 2.679291e-02 -3.722486e-04)	(-1.579617e-06 -1.579500e-06 1.760904e-04)
0.000775      	(2.748488e-02 2.748494e-02 -2.038707e-04)	(2.748643e-02 2.748649e-02 -3.863485e-04)	(-1.544756e-06 -1.544647e-06 1.824779e-04)
0.0008        	(2.815867e-02 2.815867e-02 -2.114769e-04)	(2.816018e-02 2.816018e-02 -4.003658e-04)	(-1.508557e-06 -1.508448e-06 1.888889e-04)
0.000825      	(2.882218e-02 2.882212e-02 -2.188307e-04)	(2.882365e-02 2.882359e-02 -4.141522e-04)	(-1.471334e-06 -1.471191e-06 1.953215e-04)
0.00085       	(2.948474e-02 2.948482e-02 -2.257796e-04)	(2.948617e-02 2.948626e-02 -4.275542e-04)	(-1.433475e-06 -1.433353e-06 2.017746e-04)
0.000875      	(3.015509e-02 3.015513e-02 -2.322305e-04)	(3.015648e-02 3.015652e-02 -4.404775e-04)	(-1.395353e-06 -1.395256e-06 2.082470e-04)
0.0009        	(3.084185e-02 3.084199e-02 -2.381194e-04)	(3.084320e-02 3.084335e-02 -4.528573e-04)	(-1.357244e-06 -1.357206e-06 2.147379e-04)
0.000925      	(3.155461e-02 3.155470e-02 -2.434404e-04)	(3.155593e-02 3.155602e-02 -4.646864e-04)	(-1.319348e-06 -1.319357e-06 2.212460e-04)
0.00095       	(3.229698e-02 3.229698e-02 -2.482204e-04)	(3.229826e-02 3.229826e-02 -4.759902e-04)	(-1.281899e-06 -1.281912e-06 2.277698e-04)
0.000975      	(3.307093e-02 3.307111e-02 -2.524565e-04)	(3.307217e-02 3.307235e-02 -4.867642e-04)	(-1.245120e-06 -1.245213e-06 2.343077e-04)
0.001         	(3.387809e-02 3.387805e-02 -2.561596e-04)	(3.387930e-02 3.387926e-02 -4.970176e-04)	(-1.209282e-06 -1.209379e-06 2.408581e-04)
0.001025      	(3.471668e-02 3.471658e-02 -2.594305e-04)	(3.471785e-02 3.471775e-02 -5.068496e-04)	(-1.174481e-06 -1.174540e-06 2.474191e-04)
0.00105       	(3.558226e-02 3.558251e-02 -2.623964e-04)	(3.558340e-02 3.558365e-02 -5.163848e-04)	(-1.140451e-06 -1.140627e-06 2.539885e-04)
0.001075      	(3.647248e-02 3.647213e-02 -2.650825e-04)	(3.647359e-02 3.647324e-02 -5.256468e-04)	(-1.107408e-06 -1.107468e-06 2.605644e-04)
0.0011        	(3.738002e-02 3.737999e-02 -2.675367e-04)	(3.738110e-02 3.738107e-02 -5.346819e-04)	(-1.075308e-06 -1.075329e-06 2.671452e-04)
0.001125      	(3.829695e-02 3.829710e-02 -2.697982e-04)	(3.829799e-02 3.829815e-02 -5.435279e-04)	(-1.044136e-06 -1.044230e-06 2.737298e-04)
0.00115       	(3.922108e-02 3.922091e-02 -2.718724e-04)	(3.922209e-02 3.922192e-02 -5.521893e-04)	(-1.013863e-06 -1.013904e-06 2.803169e-04)
0.001175      	(4.014642e-02 4.014656e-02 -2.738109e-04)	(4.014741e-02 4.014754e-02 -5.607158e-04)	(-9.842110e-07 -9.843171e-07 2.869049e-04)
0.0012        	(4.106550e-02 4.106559e-02 -2.755581e-04)	(4.106645e-02 4.106654e-02 -5.690518e-04)	(-9.553998e-07 -9.555776e-07 2.934937e-04)
0.001225      	(4.197845e-02 4.197836e-02 -2.770513e-04)	(4.197938e-02 4.197929e-02 -5.771346e-04)	(-9.275191e-07 -9.276873e-07 3.000833e-04)
0.00125       	(4.288292e-02 4.288303e-02 -2.783053e-04)	(4.288382e-02 4.288393e-02 -5.849789e-04)	(-9.005487e-07 -9.007690e-07 3.066736e-04)
0.001275      	(4.377697e-02 4.377701e-02 -2.793047e-04)	(4.377784e-02 4.377788e-02 -5.925691e-04)	(-8.745434e-07 -8.748118e-07 3.132644e-04)
0.0013        	(4.466316e-02 4.466306e-02 -2.799936e-04)	(4.466401e-02 4.466391e-02 -5.998489e-04)	(-8.496002e-07 -8.498544e-07 3.198554e-04)
0.001325      	(4.554248e-02 4.554248e-02 -2.803731e-04)	(4.554331e-02 4.554331e-02 -6.068195e-04)	(-8.257967e-07 -8.260579e-07 3.264465e-04)
0.00135       	(4.641797e-02 4.641799e-02 -2.804493e-04)	(4.641877e-02 4.641879e-02 -6.134864e-04)	(-8.031387e-07 -8.034163e-07 3.330371e-04)
0.001375      	(4.729291e-02 4.729286e-02 -2.801926e-04)	(4.729369e-02 4.729364e-02 -6.198196e-04)	(-7.817242e-07 -7.819832e-07 3.396271e-04)
0.0014        	(4.817126e-02 4.817122e-02 -2.796993e-04)	(4.817202e-02 4.817198e-02 -6.259151e-04)	(-7.615619e-07 -7.618002e-07 3.462157e-04)
0.001425      	(4.905587e-02 4.905588e-02 -2.789262e-04)	(4.905661e-02 4.905662e-02 -6.317288e-04)	(-7.426735e-07 -7.429116e-07 3.528026e-04)
0.00145       	(4.994568e-02 4.994568e-02 -2.777235e-04)	(4.994640e-02 4.994640e-02 -6.371105e-04)	(-7.252729e-07 -7.255065e-07 3.593869e-04)
0.001475      	(5.084286e-02 5.084279e-02 -2.761463e-04)	(5.084357e-02 5.084350e-02 -6.421144e-04)	(-7.094355e-07 -7.096510e-07 3.659681e-04)
0.0015        	(5.175103e-02 5.175105e-02 -2.742707e-04)	(5.175173e-02 5.175175e-02 -6.468162e-04)	(-6.951514e-07 -6.953652e-07 3.725455e-04)
0.001525      	(5.266769e-02 5.266773e-02 -2.720408e-04)	(5.266838e-02 5.266841e-02 -6.511590e-04)	(-6.824364e-07 -6.826481e-07 3.791182e-04)
0.00155       	(5.359374e-02 5.359364e-02 -2.694910e-04)	(5.359441e-02 5.359431e-02 -6.551764e-04)	(-6.713781e-07 -6.715368e-07 3.856854e-04)
0.001575      	(5.453086e-02 5.453086e-02 -2.666696e-04)	(5.453152e-02 5.453152e-02 -6.589159e-04)	(-6.619591e-07 -6.620956e-07 3.922463e-04)
0.0016        	(5.547266e-02 5.547240e-02 -2.635436e-04)	(5.547331e-02 5.547305e-02 -6.623437e-04)	(-6.543089e-07 -6.543184e-07 3.988001e-04)
0.001625      	(5.642144e-02 5.642171e-02 -2.602611e-04)	(5.642209e-02 5.642236e-02 -6.656073e-04)	(-6.480923e-07 -6.481685e-07 4.053462e-04)
0.00165       	(5.737797e-02 5.737808e-02 -2.568686e-04)	(5.737862e-02 5.737872e-02 -6.687525e-04)	(-6.433090e-07 -6.434287e-07 4.118838e-04)
0.001675      	(5.833871e-02 5.833865e-02 -2.532625e-04)	(5.833935e-02 5.833929e-02 -6.716748e-04)	(-6.399503e-07 -6.400320e-07 4.184124e-04)
0.0017        	(5.929749e-02 5.929737e-02 -2.495285e-04)	(5.929812e-02 5.929801e-02 -6.744598e-04)	(-6.378579e-07 -6.378765e-07 4.249313e-04)
0.001725      	(6.025691e-02 6.025699e-02 -2.456565e-04)	(6.025755e-02 6.025762e-02 -6.770969e-04)	(-6.367668e-07 -6.367981e-07 4.314403e-04)
0.00175       	(6.121684e-02 6.121679e-02 -2.417194e-04)	(6.121747e-02 6.121742e-02 -6.796585e-04)	(-6.366558e-07 -6.366596e-07 4.379390e-04)
0.001775      	(6.217323e-02 6.217317e-02 -2.376396e-04)	(6.217387e-02 6.217381e-02 -6.820665e-04)	(-6.375019e-07 -6.374582e-07 4.444269e-04)
0.0018        	(6.312731e-02 6.312741e-02 -2.334657e-04)	(6.312795e-02 6.312805e-02 -6.843692e-04)	(-6.391133e-07 -6.390925e-07 4.509035e-04)
0.001825      	(6.407827e-02 6.407825e-02 -2.291364e-04)	(6.407892e-02 6.407889e-02 -6.865048e-04)	(-6.414292e-07 -6.413953e-07 4.573683e-04)
0.00185       	(6.502562e-02 6.502551e-02 -2.245989e-04)	(6.502627e-02 6.502615e-02 -6.884203e-04)	(-6.445310e-07 -6.444372e-07 4.638214e-04)
0.001875      	(6.597216e-02 6.597248e-02 -2.198733e-04)	(6.597281e-02 6.597313e-02 -6.901356e-04)	(-6.483061e-07 -6.483361e-07 4.702623e-04)
0.0019        	(6.691319e-02 6.691319e-02 -2.149421e-04)	(6.691384e-02 6.691384e-02 -6.916329e-04)	(-6.529228e-07 -6.529885e-07 4.766908e-04)
0.001925      	(6.785719e-02 6.785704e-02 -2.098924e-04)	(6.785785e-02 6.785769e-02 -6.929992e-04)	(-6.583800e-07 -6.583819e-07 4.831067e-04)
0.00195       	(6.879896e-02 6.879881e-02 -2.046064e-04)	(6.879962e-02 6.879948e-02 -6.941163e-04)	(-6.647122e-07 -6.646570e-07 4.895099e-04)
0.001975      	(6.974542e-02 6.974545e-02 -1.992466e-04)	(6.974609e-02 6.974612e-02 -6.951466e-04)	(-6.717274e-07 -6.716797e-07 4.959000e-04)
0.002         	(7.069715e-02 7.069713e-02 -1.939902e-04)	(7.069783e-02 7.069780e-02 -6.962670e-04)	(-6.792603e-07 -6.792080e-07 5.022768e-04)
0.002025      	(7.164753e-02 7.164749e-02 -1.884372e-04)	(7.164822e-02 7.164818e-02 -6.970776e-04)	(-6.874767e-07 -6.874097e-07 5.086405e-04)
0.00205       	(7.260634e-02 7.260627e-02 -1.827886e-04)	(7.260704e-02 7.260696e-02 -6.977793e-04)	(-6.961932e-07 -6.960980e-07 5.149907e-04)
0.002075      	(7.356104e-02 7.356083e-02 -1.769728e-04)	(7.356174e-02 7.356153e-02 -6.983000e-04)	(-7.054735e-07 -7.052912e-07 5.213272e-04)
0.0021        	(7.452027e-02 7.452035e-02 -1.709940e-04)	(7.452099e-02 7.452107e-02 -6.986438e-04)	(-7.152527e-07 -7.150949e-07 5.276498e-04)
0.002125      	(7.547621e-02 7.547633e-02 -1.646827e-04)	(7.547693e-02 7.547705e-02 -6.986417e-04)	(-7.255082e-07 -7.254065e-07 5.339591e-04)
0.00215       	(7.643771e-02 7.643762e-02 -1.585046e-04)	(7.643845e-02 7.643836e-02 -6.987592e-04)	(-7.362723e-07 -7.361474e-07 5.402546e-04)
0.002175      	(7.740069e-02 7.740079e-02 -1.522577e-04)	(7.740144e-02 7.740153e-02 -6.987938e-04)	(-7.473755e-07 -7.472934e-07 5.465361e-04)
0.0022        	(7.836357e-02 7.836367e-02 -1.459323e-04)	(7.836433e-02 7.836442e-02 -6.987352e-04)	(-7.587751e-07 -7.587520e-07 5.528028e-04)
0.002225      	(7.932317e-02 7.932314e-02 -1.394816e-04)	(7.932394e-02 7.932391e-02 -6.985367e-04)	(-7.703046e-07 -7.702884e-07 5.590551e-04)
0.00225       	(8.028386e-02 8.028394e-02 -1.330060e-04)	(8.028465e-02 8.028472e-02 -6.982989e-04)	(-7.820829e-07 -7.821059e-07 5.652929e-04)
0.002275      	(8.124957e-02 8.124962e-02 -1.267290e-04)	(8.125037e-02 8.125042e-02 -6.982448e-04)	(-7.940030e-07 -7.940618e-07 5.715158e-04)
0.0023        	(8.221143e-02 8.221137e-02 -1.203372e-04)	(8.221224e-02 8.221218e-02 -6.980605e-04)	(-8.059386e-07 -8.059830e-07 5.777233e-04)
0.002325      	(8.316739e-02 8.316742e-02 -1.137804e-04)	(8.316820e-02 8.316824e-02 -6.976957e-04)	(-8.177352e-07 -8.177966e-07 5.839152e-04)
0.00235       	(8.411403e-02 8.411425e-02 -1.069713e-04)	(8.411486e-02 8.411508e-02 -6.970630e-04)	(-8.295650e-07 -8.297283e-07 5.900917e-04)
0.002375      	(8.506701e-02 8.506725e-02 -1.003160e-04)	(8.506786e-02 8.506809e-02 -6.965679e-04)	(-8.415475e-07 -8.418393e-07 5.962518e-04)
0.0024        	(8.602475e-02 8.602474e-02 -9.379513e-05)	(8.602560e-02 8.602559e-02 -6.961902e-04)	(-8.534592e-07 -8.537915e-07 6.023951e-04)
0.002425      	(8.697930e-02 8.697920e-02 -8.724037e-05)	(8.698016e-02 8.698007e-02 -6.957612e-04)	(-8.651945e-07 -8.655187e-07 6.085208e-04)
0.00245       	(8.792543e-02 8.792556e-02 -8.049160e-05)	(8.792631e-02 8.792644e-02 -6.951202e-04)	(-8.765322e-07 -8.769342e-07 6.146286e-04)
0.002475      	(8.887126e-02 8.887120e-02 -7.375151e-05)	(8.887215e-02 8.887209e-02 -6.944692e-04)	(-8.878342e-07 -8.882469e-07 6.207177e-04)
0.0025        	(8.981970e-02 8.981970e-02 -6.700391e-05)	(8.982060e-02 8.982060e-02 -6.937913e-04)	(-8.994465e-07 -8.998704e-07 6.267874e-04)
0.002525      	(9.077351e-02 9.077366e-02 -6.029274e-05)	(9.077442e-02 9.077457e-02 -6.931293e-04)	(-9.109459e-07 -9.114532e-07 6.328365e-04)
0.00255       	(9.172741e-02 9.172706e-02 -5.358252e-05)	(9.172833e-02 9.172799e-02 -6.924464e-04)	(-9.223086e-07 -9.227062e-07 6.388639e-04)
0.002575      	(9.267162e-02 9.267149e-02 -4.674500e-05)	(9.267255e-02 9.267243e-02 -6.916134e-04)	(-9.333240e-07 -9.336555e-07 6.448684e-04)
0.0026        	(9.361534e-02 9.361531e-02 -3.988033e-05)	(9.361628e-02 9.361625e-02 -6.907287e-04)	(-9.439416e-07 -9.442628e-07 6.508484e-04)
0.002625      	(9.455874e-02 9.455870e-02 -3.303323e-05)	(9.455970e-02 9.455965e-02 -6.898356e-04)	(-9.548859e-07 -9.551881e-07 6.568024e-04)
0.00265       	(9.551114e-02 9.551115e-02 -2.628429e-05)	(9.551211e-02 9.551212e-02 -6.890127e-04)	(-9.658683e-07 -9.661641e-07 6.627284e-04)
0.002675      	(9.646344e-02 9.646344e-02 -1.957259e-05)	(9.646441e-02 9.646442e-02 -6.881970e-04)	(-9.765181e-07 -9.768170e-07 6.686244e-04)
0.0027        	(9.740940e-02 9.740944e-02 -1.278315e-05)	(9.741039e-02 9.741042e-02 -6.872712e-04)	(-9.866203e-07 -9.869363e-07 6.744881e-04)
0.002725      	(9.835384e-02 9.835375e-02 -6.035152e-06)	(9.835483e-02 9.835474e-02 -6.863518e-04)	(-9.965368e-07 -9.968169e-07 6.803167e-04)
0.00275       	(9.928612e-02 9.928605e-02 7.014269e-07)	(9.928712e-02 9.928705e-02 -6.854061e-04)	(-1.006091e-06 -1.006326e-06 6.861075e-04)
0.002775      	(1.002296e-01 1.002296e-01 7.484400e-06)	(1.002307e-01 1.002306e-01 -6.843731e-04)	(-1.016058e-06 -1.016244e-06 6.918575e-04)
0.0028        	(1.011757e-01 1.011758e-01 1.405222e-05)	(1.011767e-01 1.011768e-01 -6.835113e-04)	(-1.025876e-06 -1.026073e-06 6.975635e-04)
0.002825      	(1.021198e-01 1.021198e-01 2.050029e-05)	(1.021209e-01 1.021208e-01 -6.827215e-04)	(-1.035179e-06 -1.035340e-06 7.032218e-04)
0.00285       	(1.030556e-01 1.030558e-01 2.718596e-05)	(1.030567e-01 1.030568e-01 -6.816430e-04)	(-1.044144e-06 -1.044346e-06 7.088289e-04)
0.002875      	(1.039904e-01 1.039907e-01 3.366936e-05)	(1.039915e-01 1.039917e-01 -6.807114e-04)	(-1.052125e-06 -1.052431e-06 7.143808e-04)
0.0029        	(1.049122e-01 1.049124e-01 4.003943e-05)	(1.049133e-01 1.049135e-01 -6.798337e-04)	(-1.059906e-06 -1.060314e-06 7.198732e-04)
0.002925      	(1.058436e-01 1.058434e-01 4.644539e-05)	(1.058446e-01 1.058445e-01 -6.788567e-04)	(-1.067972e-06 -1.068326e-06 7.253020e-04)
0.00295       	(1.067799e-01 1.067795e-01 5.266174e-05)	(1.067810e-01 1.067806e-01 -6.780014e-04)	(-1.075901e-06 -1.076067e-06 7.306631e-04)
0.002975      	(1.077107e-01 1.077103e-01 5.882834e-05)	(1.077118e-01 1.077114e-01 -6.771238e-04)	(-1.082948e-06 -1.082904e-06 7.359522e-04)
0.003         	(1.086363e-01 1.086362e-01 6.499860e-05)	(1.086374e-01 1.086373e-01 -6.761663e-04)	(-1.089649e-06 -1.089494e-06 7.411649e-04)
0.003025      	(1.088009e-01 1.088009e-01 1.173656e-04)	(1.088019e-01 1.088019e-01 -6.274489e-04)	(-1.018417e-06 -1.018182e-06 7.448145e-04)
0.00305       	(1.082490e-01 1.082491e-01 2.106224e-04)	(1.082500e-01 1.082500e-01 -5.363533e-04)	(-9.617353e-07 -9.614665e-07 7.469756e-04)
0.003075      	(1.070611e-01 1.070612e-01 3.366071e-04)	(1.070620e-01 1.070621e-01 -4.110073e-04)	(-9.147291e-07 -9.144977e-07 7.476144e-04)
0.0031        	(1.053278e-01 1.053278e-01 4.847314e-04)	(1.053287e-01 1.053287e-01 -2.619470e-04)	(-8.768159e-07 -8.766054e-07 7.466784e-04)
0.003125      	(1.039032e-01 1.039033e-01 6.018816e-04)	(1.039042e-01 1.039042e-01 -1.437411e-04)	(-9.254665e-07 -9.252844e-07 7.456227e-04)
0.00315       	(1.028501e-01 1.028505e-01 6.847140e-04)	(1.028511e-01 1.028514e-01 -5.966163e-05)	(-9.658229e-07 -9.658053e-07 7.443756e-04)
0.003175      	(1.022005e-01 1.022007e-01 7.338257e-04)	(1.022015e-01 1.022017e-01 -9.167515e-06)	(-9.979267e-07 -9.980657e-07 7.429932e-04)
0.0032        	(1.019482e-01 1.019483e-01 7.542038e-04)	(1.019492e-01 1.019493e-01 1.264921e-05)	(-1.017645e-06 -1.017854e-06 7.415546e-04)
0.003225      	(1.020733e-01 1.020732e-01 7.535401e-04)	(1.020743e-01 1.020742e-01 1.343613e-05)	(-1.023960e-06 -1.024173e-06 7.401040e-04)
0.00325       	(1.024925e-01 1.024924e-01 7.398690e-04)	(1.024935e-01 1.024934e-01 1.234770e-06)	(-1.018967e-06 -1.019154e-06 7.386342e-04)
0.003275      	(1.031246e-01 1.031244e-01 7.200357e-04)	(1.031256e-01 1.031254e-01 -1.706304e-05)	(-1.007758e-06 -1.007863e-06 7.370987e-04)
0.0033        	(1.038932e-01 1.038931e-01 6.991412e-04)	(1.038942e-01 1.038941e-01 -3.629515e-05)	(-9.952243e-07 -9.952740e-07 7.354363e-04)
0.003325      	(1.047529e-01 1.047527e-01 6.805530e-04)	(1.047539e-01 1.047537e-01 -5.304267e-05)	(-9.858365e-07 -9.858093e-07 7.335957e-04)
0.00335       	(1.056423e-01 1.056422e-01 6.662879e-04)	(1.056432e-01 1.056431e-01 -6.526278e-05)	(-9.811111e-07 -9.810369e-07 7.315507e-04)
0.003375      	(1.064891e-01 1.064891e-01 6.575154e-04)	(1.064901e-01 1.064900e-01 -7.178785e-05)	(-9.816597e-07 -9.815503e-07 7.293032e-04)
0.0034        	(1.072564e-01 1.072564e-01 6.544676e-04)	(1.072574e-01 1.072574e-01 -7.240835e-05)	(-9.874123e-07 -9.873281e-07 7.268759e-04)
0.003425      	(1.079154e-01 1.079155e-01 6.568571e-04)	(1.079164e-01 1.079165e-01 -6.744280e-05)	(-9.982318e-07 -9.982153e-07 7.242999e-04)
0.00345       	(1.084661e-01 1.084661e-01 6.637821e-04)	(1.084671e-01 1.084671e-01 -5.782206e-05)	(-1.012774e-06 -1.012788e-06 7.216042e-04)
0.003475      	(1.088946e-01 1.088947e-01 6.741590e-04)	(1.088956e-01 1.088957e-01 -4.464874e-05)	(-1.029728e-06 -1.029810e-06 7.188078e-04)
0.0035        	(1.091981e-01 1.091983e-01 6.866558e-04)	(1.091992e-01 1.091993e-01 -2.926042e-05)	(-1.047592e-06 -1.047773e-06 7.159163e-04)
0.003525      	(1.094010e-01 1.094010e-01 6.997188e-04)	(1.094021e-01 1.094021e-01 -1.320702e-05)	(-1.066164e-06 -1.066370e-06 7.129258e-04)
0.00355       	(1.095247e-01 1.095247e-01 7.121130e-04)	(1.095258e-01 1.095258e-01 2.288142e-06)	(-1.083794e-06 -1.084020e-06 7.098249e-04)
0.003575      	(1.095799e-01 1.095799e-01 7.227692e-04)	(1.095810e-01 1.095810e-01 1.616988e-05)	(-1.099065e-06 -1.099302e-06 7.065993e-04)
0.0036        	(1.096022e-01 1.096020e-01 7.307634e-04)	(1.096033e-01 1.096031e-01 2.752458e-05)	(-1.111541e-06 -1.111719e-06 7.032389e-04)
0.003625      	(1.096051e-01 1.096050e-01 7.357999e-04)	(1.096062e-01 1.096061e-01 3.606341e-05)	(-1.119876e-06 -1.120013e-06 6.997365e-04)
0.00365       	(1.095967e-01 1.095967e-01 7.375373e-04)	(1.095978e-01 1.095978e-01 4.144061e-05)	(-1.124493e-06 -1.124603e-06 6.960967e-04)
0.003675      	(1.095931e-01 1.095930e-01 7.363042e-04)	(1.095942e-01 1.095941e-01 4.398036e-05)	(-1.124553e-06 -1.124616e-06 6.923238e-04)
0.0037        	(1.096119e-01 1.096119e-01 7.325124e-04)	(1.096131e-01 1.096131e-01 4.408793e-05)	(-1.119865e-06 -1.119905e-06 6.884244e-04)
0.003725      	(1.096462e-01 1.096462e-01 7.266961e-04)	(1.096473e-01 1.096473e-01 4.228819e-05)	(-1.110731e-06 -1.110789e-06 6.844079e-04)
0.00375       	(1.097139e-01 1.097139e-01 7.194650e-04)	(1.097150e-01 1.097150e-01 3.918074e-05)	(-1.098675e-06 -1.098707e-06 6.802842e-04)
0.003775      	(1.098197e-01 1.098197e-01 7.115793e-04)	(1.098208e-01 1.098207e-01 3.551654e-05)	(-1.083926e-06 -1.083937e-06 6.760628e-04)
0.0038        	(1.099483e-01 1.099483e-01 7.035269e-04)	(1.099493e-01 1.099494e-01 3.177526e-05)	(-1.066824e-06 -1.066851e-06 6.717516e-04)
0.003825      	(1.101031e-01 1.101030e-01 6.957044e-04)	(1.101041e-01 1.101040e-01 2.834784e-05)	(-1.048412e-06 -1.048387e-06 6.673566e-04)
0.00385       	(1.102814e-01 1.102814e-01 6.884758e-04)	(1.102824e-01 1.102824e-01 2.559320e-05)	(-1.028845e-06 -1.028787e-06 6.628826e-04)
0.003875      	(1.104600e-01 1.104601e-01 6.820363e-04)	(1.104610e-01 1.104611e-01 2.370241e-05)	(-1.008973e-06 -1.008911e-06 6.583339e-04)
0.0039        	(1.106550e-01 1.106549e-01 6.765391e-04)	(1.106560e-01 1.106559e-01 2.282557e-05)	(-9.885543e-07 -9.884006e-07 6.537135e-04)
0.003925      	(1.108507e-01 1.108507e-01 6.719456e-04)	(1.108517e-01 1.108517e-01 2.292086e-05)	(-9.673063e-07 -9.671203e-07 6.490248e-04)
0.00395       	(1.110175e-01 1.110176e-01 6.681650e-04)	(1.110184e-01 1.110185e-01 2.389410e-05)	(-9.452338e-07 -9.450686e-07 6.442709e-04)
0.003975      	(1.111719e-01 1.111718e-01 6.649411e-04)	(1.111728e-01 1.111727e-01 2.548612e-05)	(-9.224880e-07 -9.222721e-07 6.394550e-04)
0.004         	(1.113020e-01 1.113020e-01 6.620256e-04)	(1.113029e-01 1.113029e-01 2.744520e-05)	(-8.986842e-07 -8.984575e-07 6.345804e-04)
0.004025      	(1.113888e-01 1.113887e-01 6.592237e-04)	(1.113897e-01 1.113896e-01 2.957292e-05)	(-8.743524e-07 -8.740984e-07 6.296508e-04)
0.00405       	(1.114516e-01 1.114517e-01 6.563601e-04)	(1.114525e-01 1.114525e-01 3.168995e-05)	(-8.491682e-07 -8.489274e-07 6.246701e-04)
0.004075      	(1.114864e-01 1.114864e-01 6.531492e-04)	(1.114872e-01 1.114872e-01 3.350729e-05)	(-8.231230e-07 -8.228793e-07 6.196419e-04)
0.0041        	(1.114778e-01 1.114779e-01 6.495368e-04)	(1.114786e-01 1.114787e-01 3.496674e-05)	(-7.963274e-07 -7.960927e-07 6.145701e-04)
0.004125      	(1.114525e-01 1.114528e-01 6.453381e-04)	(1.114533e-01 1.114536e-01 3.588001e-05)	(-7.691745e-07 -7.690934e-07 6.094581e-04)
0.00415       	(1.114083e-01 1.114082e-01 6.404476e-04)	(1.114090e-01 1.114090e-01 3.613861e-05)	(-7.417700e-07 -7.416974e-07 6.043090e-04)
0.004175      	(1.113405e-01 1.113404e-01 6.350036e-04)	(1.113412e-01 1.113412e-01 3.587752e-05)	(-7.143271e-07 -7.142362e-07 5.991260e-04)
0.0042        	(1.112702e-01 1.112701e-01 6.290094e-04)	(1.112709e-01 1.112708e-01 3.509781e-05)	(-6.869593e-07 -6.868508e-07 5.939116e-04)
0.004225      	(1.112001e-01 1.112001e-01 6.226034e-04)	(1.112008e-01 1.112008e-01 3.393553e-05)	(-6.599185e-07 -6.597941e-07 5.886679e-04)
0.00425       	(1.111258e-01 1.111256e-01 6.159367e-04)	(1.111264e-01 1.111262e-01 3.253905e-05)	(-6.333679e-07 -6.331466e-07 5.833976e-04)
0.004275      	(1.110570e-01 1.110569e-01 6.090461e-04)	(1.110576e-01 1.110575e-01 3.094336e-05)	(-6.076609e-07 -6.073599e-07 5.781027e-04)
0.0043        	(1.110042e-01 1.110042e-01 6.020312e-04)	(1.110047e-01 1.110048e-01 2.924667e-05)	(-5.825914e-07 -5.822952e-07 5.727846e-04)
0.004325      	(1.109480e-01 1.109481e-01 5.950365e-04)	(1.109486e-01 1.109486e-01 2.759165e-05)	(-5.584576e-07 -5.581906e-07 5.674448e-04)
0.00435       	(1.109101e-01 1.109101e-01 5.881547e-04)	(1.109106e-01 1.109107e-01 2.606970e-05)	(-5.351408e-07 -5.349055e-07 5.620850e-04)
0.004375      	(1.108867e-01 1.108869e-01 5.813695e-04)	(1.108872e-01 1.108874e-01 2.466294e-05)	(-5.125418e-07 -5.124019e-07 5.567066e-04)
0.0044        	(1.108597e-01 1.108598e-01 5.749509e-04)	(1.108602e-01 1.108603e-01 2.363964e-05)	(-4.905742e-07 -4.904951e-07 5.513112e-04)
0.004425      	(1.108436e-01 1.108436e-01 5.687564e-04)	(1.108441e-01 1.108440e-01 2.285582e-05)	(-4.694699e-07 -4.693841e-07 5.459006e-04)
0.00445       	(1.108302e-01 1.108302e-01 5.627416e-04)	(1.108306e-01 1.108306e-01 2.226547e-05)	(-4.490009e-07 -4.489341e-07 5.404761e-04)
0.004475      	(1.108014e-01 1.108013e-01 5.570379e-04)	(1.108018e-01 1.108018e-01 2.199822e-05)	(-4.292219e-07 -4.291630e-07 5.350396e-04)
0.0045        	(1.107778e-01 1.107779e-01 5.515258e-04)	(1.107783e-01 1.107783e-01 2.193300e-05)	(-4.100217e-07 -4.099701e-07 5.295928e-04)
0.004525      	(1.107495e-01 1.107496e-01 5.460958e-04)	(1.107499e-01 1.107499e-01 2.195861e-05)	(-3.912101e-07 -3.911637e-07 5.241372e-04)
0.00455       	(1.107015e-01 1.107015e-01 5.408255e-04)	(1.107019e-01 1.107019e-01 2.215111e-05)	(-3.725178e-07 -3.724685e-07 5.186744e-04)
0.004575      	(1.106537e-01 1.106539e-01 5.356131e-04)	(1.106541e-01 1.106542e-01 2.240709e-05)	(-3.542189e-07 -3.542260e-07 5.132060e-04)
0.0046        	(1.105955e-01 1.105955e-01 5.303811e-04)	(1.105958e-01 1.105958e-01 2.264755e-05)	(-3.361860e-07 -3.362500e-07 5.077335e-04)
0.004625      	(1.105146e-01 1.105146e-01 5.251591e-04)	(1.105149e-01 1.105149e-01 2.290070e-05)	(-3.183103e-07 -3.183980e-07 5.022584e-04)
0.00465       	(1.104327e-01 1.104327e-01 5.199098e-04)	(1.104330e-01 1.104330e-01 2.312748e-05)	(-3.006680e-07 -3.007584e-07 4.967823e-04)
0.004675      	(1.103468e-01 1.103469e-01 5.145556e-04)	(1.103471e-01 1.103472e-01 2.324895e-05)	(-2.832560e-07 -2.833894e-07 4.913066e-04)
0.0047        	(1.102489e-01 1.102486e-01 5.091263e-04)	(1.102492e-01 1.102489e-01 2.329358e-05)	(-2.658683e-07 -2.659070e-07 4.858327e-04)
0.004725      	(1.101497e-01 1.101496e-01 5.036265e-04)	(1.101499e-01 1.101499e-01 2.326463e-05)	(-2.488866e-07 -2.488695e-07 4.803618e-04)
0.00475       	(1.100521e-01 1.100520e-01 4.980676e-04)	(1.100523e-01 1.100523e-01 2.317231e-05)	(-2.321884e-07 -2.321359e-07 4.748953e-04)
0.004775      	(1.099426e-01 1.099427e-01 4.924930e-04)	(1.099429e-01 1.099429e-01 2.305886e-05)	(-2.158991e-07 -2.158457e-07 4.694341e-04)
0.0048        	(1.098400e-01 1.098401e-01 4.869129e-04)	(1.098402e-01 1.098403e-01 2.293323e-05)	(-2.001414e-07 -2.000962e-07 4.639797e-04)
0.004825      	(1.097441e-01 1.097442e-01 4.813332e-04)	(1.097443e-01 1.097444e-01 2.280012e-05)	(-1.850075e-07 -1.850186e-07 4.585331e-04)
0.00485       	(1.096391e-01 1.096392e-01 4.758352e-04)	(1.096393e-01 1.096394e-01 2.273987e-05)	(-1.701183e-07 -1.701791e-07 4.530953e-04)
0.004875      	(1.095519e-01 1.095520e-01 4.703450e-04)	(1.095520e-01 1.095521e-01 2.267779e-05)	(-1.560015e-07 -1.561095e-07 4.476672e-04)
0.0049        	(1.094705e-01 1.094705e-01 4.649067e-04)	(1.094707e-01 1.094707e-01 2.265718e-05)	(-1.428731e-07 -1.429935e-07 4.422495e-04)
0.004925      	(1.093725e-01 1.093724e-01 4.596091e-04)	(1.093726e-01 1.093725e-01 2.276597e-05)	(-1.302861e-07 -1.303867e-07 4.368431e-04)
0.00495       	(1.092865e-01 1.092865e-01 4.543776e-04)	(1.092866e-01 1.092866e-01 2.292862e-05)	(-1.184431e-07 -1.185242e-07 4.314490e-04)
0.004975      	(1.092112e-01 1.092111e-01 4.491801e-04)	(1.092113e-01 1.092113e-01 2.311231e-05)	(-1.076492e-07 -1.076894e-07 4.260678e-04)
0.005         	(1.091235e-01 1.091234e-01 4.441719e-04)	(1.091236e-01 1.091235e-01 2.347127e-05)	(-9.721734e-08 -9.720540e-08 4.207006e-04)
0.005025      	(1.090449e-01 1.090449e-01 4.391429e-04)	(1.090450e-01 1.090450e-01 2.379513e-05)	(-8.775555e-08 -8.772016e-08 4.153478e-04)
0.00505       	(1.089700e-01 1.089700e-01 4.341099e-04)	(1.089701e-01 1.089701e-01 2.409975e-05)	(-7.941569e-08 -7.937001e-08 4.100102e-04)
0.005075      	(1.088800e-01 1.088800e-01 4.292549e-04)	(1.088801e-01 1.088801e-01 2.456649e-05)	(-7.157728e-08 -7.150818e-08 4.046884e-04)
0.0051        	(1.087917e-01 1.087918e-01 4.243328e-04)	(1.087918e-01 1.087918e-01 2.494945e-05)	(-6.473704e-08 -6.469087e-08 3.993833e-04)
0.005125      	(1.087085e-01 1.087085e-01 4.193171e-04)	(1.087085e-01 1.087086e-01 2.522144e-05)	(-5.902200e-08 -5.899153e-08 3.940957e-04)
0.00515       	(1.086160e-01 1.086159e-01 4.144766e-04)	(1.086160e-01 1.086160e-01 2.564999e-05)	(-5.393834e-08 -5.389441e-08 3.888266e-04)
0.005175      	(1.085237e-01 1.085237e-01 4.094928e-04)	(1.085238e-01 1.085238e-01 2.591609e-05)	(-4.995081e-08 -4.991277e-08 3.835767e-04)
0.0052        	(1.084340e-01 1.084340e-01 4.043388e-04)	(1.084340e-01 1.084341e-01 2.599209e-05)	(-4.716643e-08 -4.712449e-08 3.783467e-04)
0.005225      	(1.083318e-01 1.083318e-01 3.993176e-04)	(1.083318e-01 1.083318e-01 2.618018e-05)	(-4.529083e-08 -4.522485e-08 3.731375e-04)
0.00525       	(1.082265e-01 1.082265e-01 3.942186e-04)	(1.082265e-01 1.082265e-01 2.626893e-05)	(-4.506026e-08 -4.499889e-08 3.679497e-04)
0.005275      	(1.081336e-01 1.081336e-01 3.888620e-04)	(1.081336e-01 1.081337e-01 2.607730e-05)	(-4.615915e-08 -4.612583e-08 3.627847e-04)