# Moment      
# CofR        : (5.000000e-01 1.000000e-01 0.000000e+00)
#
# Time        	(total_x total_y total_z)	(pressure_x pressure_y pressure_z)	(viscous_x viscous_y viscous_z)
2.5e-05       	(-2.158469e-06 3.647297e-06 -1.230236e-03)	(-1.593074e-06 7.435472e-07 -1.230430e-03)	(-5.653950e-07 2.903750e-06 1.940260e-07)
5e-05         	(-5.438131e-06 7.349032e-06 -2.369777e-03)	(-4.341270e-06 1.716035e-06 -2.370019e-03)	(-1.096860e-06 5.632996e-06 2.412263e-07)
7.5e-05       	(-9.767412e-06 1.193224e-05 -3.401818e-03)	(-8.130456e-06 3.525569e-06 -3.402112e-03)	(-1.636956e-06 8.406673e-06 2.940537e-07)
0.0001        	(-1.478574e-05 1.711686e-05 -4.281191e-03)	(-1.259285e-05 5.855124e-06 -4.281533e-03)	(-2.192892e-06 1.126173e-05 3.418337e-07)
0.000125      	(-2.001550e-05 2.226369e-05 -4.976429e-03)	(-1.725909e-05 8.107919e-06 -4.976815e-03)	(-2.756410e-06 1.415577e-05 3.857898e-07)
0.00015       	(-2.500011e-05 2.672411e-05 -5.485582e-03)	(-2.168436e-05 9.695729e-06 -5.486010e-03)	(-3.315742e-06 1.702838e-05 4.281618e-07)
0.000175      	(-2.937021e-05 2.996100e-05 -5.829736e-03)	(-2.550734e-05 1.012262e-05 -5.830205e-03)	(-3.862868e-06 1.983839e-05 4.696700e-07)
0.0002        	(-3.286865e-05 3.162796e-05 -6.040755e-03)	(-2.847209e-05 9.048479e-06 -6.041265e-03)	(-4.396558e-06 2.257948e-05 5.099025e-07)
0.000225      	(-3.535258e-05 3.159742e-05 -6.152298e-03)	(-3.043095e-05 6.321087e-06 -6.152846e-03)	(-4.921621e-06 2.527633e-05 5.480533e-07)
0.00025       	(-3.678879e-05 2.993659e-05 -6.195759e-03)	(-3.134292e-05 1.967542e-06 -6.196342e-03)	(-5.445870e-06 2.796905e-05 5.833099e-07)
0.000275      	(-3.723554e-05 2.684370e-05 -6.199789e-03)	(-3.125885e-05 -3.851871e-06 -6.200404e-03)	(-5.976697e-06 3.069557e-05 6.150254e-07)
0.0003        	(-3.683467e-05 2.259530e-05 -6.190294e-03)	(-3.031599e-05 -1.088409e-05 -6.190936e-03)	(-6.518680e-06 3.347939e-05 6.427734e-07)
0.000325      	(-3.576905e-05 1.747983e-05 -6.190109e-03)	(-2.869626e-05 -1.884564e-05 -6.190775e-03)	(-7.072785e-06 3.632548e-05 6.662891e-07)
0.00035       	(-3.428214e-05 1.181371e-05 -6.218484e-03)	(-2.664517e-05 -2.740964e-05 -6.219169e-03)	(-7.636969e-06 3.922334e-05 6.855002e-07)
0.000375      	(-3.264298e-05 5.918645e-06 -6.289615e-03)	(-2.443539e-05 -3.623565e-05 -6.290316e-03)	(-8.207589e-06 4.215430e-05 7.004814e-07)
0.0004        	(-3.109856e-05 8.982323e-08 -6.411786e-03)	(-2.231765e-05 -4.500936e-05 -6.412497e-03)	(-8.780913e-06 4.509918e-05 7.114365e-07)
0.000425      	(-2.989199e-05 -5.377233e-06 -6.587595e-03)	(-2.053775e-05 -5.342137e-05 -6.588314e-03)	(-9.354241e-06 4.804414e-05 7.186657e-07)
0.00045       	(-2.922389e-05 -1.022318e-05 -6.814529e-03)	(-1.929747e-05 -6.120639e-05 -6.815252e-03)	(-9.926412e-06 5.098321e-05 7.225587e-07)
0.000475      	(-2.922912e-05 -1.425404e-05 -7.085939e-03)	(-1.873138e-05 -6.817204e-05 -7.086662e-03)	(-1.049774e-05 5.391800e-05 7.235526e-07)
0.0005        	(-2.999774e-05 -1.733050e-05 -7.393075e-03)	(-1.892820e-05 -7.418581e-05 -7.393798e-03)	(-1.106954e-05 5.685531e-05 7.220914e-07)
0.000525      	(-3.154252e-05 -1.940956e-05 -7.726237e-03)	(-1.989893e-05 -7.921371e-05 -7.726956e-03)	(-1.164358e-05 5.980415e-05 7.185718e-07)
0.00055       	(-3.384044e-05 -2.051073e-05 -8.075602e-03)	(-2.161893e-05 -8.328373e-05 -8.076316e-03)	(-1.222151e-05 6.277300e-05 7.133641e-07)
0.000575      	(-3.677603e-05 -2.077239e-05 -8.432321e-03)	(-2.397151e-05 -8.654040e-05 -8.433028e-03)	(-1.280452e-05 6.576801e-05 7.067406e-07)
0.0006        	(-4.028951e-05 -2.029989e-05 -8.789755e-03)	(-2.689629e-05 -8.909217e-05 -8.790454e-03)	(-1.339322e-05 6.879228e-05 6.989168e-07)
0.000625      	(-4.416483e-05 -1.936805e-05 -9.141091e-03)	(-3.017718e-05 -9.121408e-05 -9.141781e-03)	(-1.398765e-05 7.184603e-05 6.900178e-07)
0.00065       	(-4.827554e-05 -1.816711e-05 -9.482755e-03)	(-3.368810e-05 -9.309446e-05 -9.483435e-03)	(-1.458744e-05 7.492735e-05 6.801296e-07)
0.000675      	(-5.248128e-05 -1.688819e-05 -9.811893e-03)	(-3.728929e-05 -9.492132e-05 -9.812562e-03)	(-1.519199e-05 7.803313e-05 6.693226e-07)
0.0007        	(-5.665058e-05 -1.569410e-05 -1.012707e-02)	(-4.084997e-05 -9.685398e-05 -1.012773e-02)	(-1.580061e-05 8.115987e-05 6.576228e-07)
0.000725      	(-6.065151e-05 -1.473033e-05 -1.042806e-02)	(-4.423884e-05 -9.903465e-05 -1.042871e-02)	(-1.641267e-05 8.430432e-05 6.450882e-07)
0.00075       	(-6.447122e-05 -1.399158e-05 -1.071653e-02)	(-4.744357e-05 -1.014554e-04 -1.071716e-02)	(-1.702765e-05 8.746379e-05 6.317887e-07)
0.000775      	(-6.803313e-05 -1.351539e-05 -1.099398e-02)	(-5.038798e-05 -1.041517e-04 -1.099460e-02)	(-1.764516e-05 9.063631e-05 6.178485e-07)
0.0008        	(-7.134401e-05 -1.324688e-05 -1.126347e-02)	(-5.307908e-05 -1.070674e-04 -1.126407e-02)	(-1.826493e-05 9.382048e-05 6.033689e-07)
0.000825      	(-7.447744e-05 -1.305445e-05 -1.152884e-02)	(-5.559066e-05 -1.100698e-04 -1.152943e-02)	(-1.888678e-05 9.701540e-05 5.884628e-07)
0.00085       	(-7.750016e-05 -1.281208e-05 -1.179394e-02)	(-5.798956e-05 -1.130325e-04 -1.179451e-02)	(-1.951060e-05 1.002204e-04 5.733295e-07)
0.000875      	(-8.045774e-05 -1.243485e-05 -1.206206e-02)	(-6.032145e-05 -1.158699e-04 -1.206261e-02)	(-2.013629e-05 1.034351e-04 5.580931e-07)
0.0009        	(-8.345376e-05 -1.179455e-05 -1.233681e-02)	(-6.269002e-05 -1.184535e-04 -1.233735e-02)	(-2.076375e-05 1.066589e-04 5.428787e-07)
0.000925      	(-8.663074e-05 -1.074578e-05 -1.262189e-02)	(-6.523789e-05 -1.206371e-04 -1.262242e-02)	(-2.139286e-05 1.098913e-04 5.277438e-07)
0.00095       	(-8.999953e-05 -9.288943e-06 -1.291879e-02)	(-6.797606e-05 -1.224203e-04 -1.291930e-02)	(-2.202347e-05 1.131314e-04 5.127662e-07)
0.000975      	(-9.365935e-05 -7.324260e-06 -1.322846e-02)	(-7.100392e-05 -1.237028e-04 -1.322896e-02)	(-2.265543e-05 1.163785e-04 4.980944e-07)
0.001         	(-9.770149e-05 -4.762621e-06 -1.355122e-02)	(-7.441291e-05 -1.243944e-04 -1.355170e-02)	(-2.328859e-05 1.196318e-04 4.837608e-07)
0.001025      	(-1.021409e-04 -1.630990e-06 -1.388662e-02)	(-7.821818e-05 -1.245214e-04 -1.388709e-02)	(-2.392275e-05 1.228904e-04 4.698216e-07)
0.00105       	(-1.069448e-04 1.985193e-06 -1.423303e-02)	(-8.238712e-05 -1.241679e-04 -1.423349e-02)	(-2.455772e-05 1.261531e-04 4.562676e-07)
0.001075      	(-1.121640e-04 6.132430e-06 -1.458882e-02)	(-8.697071e-05 -1.232866e-04 -1.458926e-02)	(-2.519330e-05 1.294190e-04 4.429932e-07)
0.0011        	(-1.177399e-04 1.072529e-05 -1.495199e-02)	(-9.191060e-05 -1.219621e-04 -1.495242e-02)	(-2.582934e-05 1.326874e-04 4.301337e-07)
0.001125      	(-1.235816e-04 1.566173e-05 -1.531886e-02)	(-9.711586e-05 -1.202959e-04 -1.531927e-02)	(-2.646573e-05 1.359576e-04 4.177010e-07)
0.00115       	(-1.297281e-04 2.098010e-05 -1.568835e-02)	(-1.026257e-04 -1.182490e-04 -1.568875e-02)	(-2.710235e-05 1.392291e-04 4.055657e-07)
0.001175      	(-1.361004e-04 2.657546e-05 -1.605864e-02)	(-1.083614e-04 -1.159255e-04 -1.605903e-02)	(-2.773904e-05 1.425010e-04 3.937372e-07)
0.0012        	(-1.425667e-04 3.234315e-05 -1.642624e-02)	(-1.141909e-04 -1.134301e-04 -1.642663e-02)	(-2.837580e-05 1.457733e-04 3.822482e-07)
0.001225      	(-1.491972e-04 3.837733e-05 -1.679134e-02)	(-1.201846e-04 -1.106686e-04 -1.679171e-02)	(-2.901263e-05 1.490460e-04 3.710912e-07)
0.00125       	(-1.559127e-04 4.459009e-05 -1.715322e-02)	(-1.262632e-04 -1.077288e-04 -1.715358e-02)	(-2.964950e-05 1.523189e-04 3.603289e-07)
0.001275      	(-1.626305e-04 5.090833e-05 -1.751081e-02)	(-1.323440e-04 -1.046838e-04 -1.751116e-02)	(-3.028642e-05 1.555922e-04 3.499506e-07)
0.0013        	(-1.694118e-04 5.741496e-05 -1.786522e-02)	(-1.384885e-04 -1.014505e-04 -1.786556e-02)	(-3.092336e-05 1.588655e-04 3.399663e-07)
0.001325      	(-1.762155e-04 6.406618e-05 -1.821699e-02)	(-1.446553e-04 -9.807270e-05 -1.821732e-02)	(-3.156029e-05 1.621389e-04 3.304484e-07)
0.00135       	(-1.830347e-04 7.085467e-05 -1.856720e-02)	(-1.508376e-04 -9.455736e-05 -1.856752e-02)	(-3.219717e-05 1.654120e-04 3.213933e-07)
0.001375      	(-1.899244e-04 7.784770e-05 -1.891714e-02)	(-1.570904e-04 -9.083710e-05 -1.891745e-02)	(-3.283397e-05 1.686848e-04 3.128183e-07)
0.0014        	(-1.968720e-04 8.499233e-05 -1.926848e-02)	(-1.634013e-04 -8.696462e-05 -1.926879e-02)	(-3.347065e-05 1.719569e-04 3.047431e-07)
0.001425      	(-2.039290e-04 9.235827e-05 -1.962235e-02)	(-1.698219e-04 -8.286991e-05 -1.962265e-02)	(-3.410714e-05 1.752282e-04 2.971877e-07)
0.00145       	(-2.111344e-04 1.000453e-04 -1.997827e-02)	(-1.763910e-04 -7.845289e-05 -1.997856e-02)	(-3.474339e-05 1.784982e-04 2.902252e-07)
0.001475      	(-2.185003e-04 1.080421e-04 -2.033711e-02)	(-1.831210e-04 -7.372448e-05 -2.033740e-02)	(-3.537931e-05 1.817666e-04 2.838812e-07)
0.0015        	(-2.260912e-04 1.163825e-04 -2.070042e-02)	(-1.900763e-04 -6.865051e-05 -2.070070e-02)	(-3.601486e-05 1.850331e-04 2.781668e-07)
0.001525      	(-2.338830e-04 1.250667e-04 -2.106709e-02)	(-1.972330e-04 -6.323050e-05 -2.106737e-02)	(-3.664996e-05 1.882972e-04 2.730797e-07)
0.00155       	(-2.419053e-04 1.341094e-04 -2.143744e-02)	(-2.046208e-04 -5.744927e-05 -2.143771e-02)	(-3.728451e-05 1.915587e-04 2.686301e-07)
0.001575      	(-2.502332e-04 1.435651e-04 -2.181234e-02)	(-2.123147e-04 -5.125186e-05 -2.181261e-02)	(-3.791844e-05 1.948170e-04 2.648514e-07)
0.0016        	(-2.587266e-04 1.533105e-04 -2.218893e-02)	(-2.201749e-04 -4.476126e-05 -2.218919e-02)	(-3.855169e-05 1.980717e-04 2.617283e-07)
0.001625      	(-2.674504e-04 1.633447e-04 -2.256871e-02)	(-2.282662e-04 -3.797801e-05 -2.256897e-02)	(-3.918418e-05 2.013227e-04 2.592748e-07)
0.00165       	(-2.764621e-04 1.737143e-04 -2.295124e-02)	(-2.366463e-04 -3.085503e-05 -2.295150e-02)	(-3.981584e-05 2.045694e-04 2.573831e-07)
0.001675      	(-2.857327e-04 1.844281e-04 -2.333545e-02)	(-2.452861e-04 -2.338347e-05 -2.333571e-02)	(-4.044662e-05 2.078116e-04 2.560207e-07)
0.0017        	(-2.950772e-04 1.952661e-04 -2.371894e-02)	(-2.540008e-04 -1.578288e-05 -2.371919e-02)	(-4.107646e-05 2.110490e-04 2.551525e-07)
0.001725      	(-3.046082e-04 2.063454e-04 -2.410280e-02)	(-2.629029e-04 -7.936078e-06 -2.410306e-02)	(-4.170534e-05 2.142815e-04 2.547223e-07)
0.00175       	(-3.143109e-04 2.176235e-04 -2.448671e-02)	(-2.719777e-04 1.146575e-07 -2.448696e-02)	(-4.233321e-05 2.175088e-04 2.546643e-07)
0.001775      	(-3.241086e-04 2.290530e-04 -2.486926e-02)	(-2.811486e-04 8.322209e-06 -2.486952e-02)	(-4.296004e-05 2.207308e-04 2.549792e-07)
0.0018        	(-3.340182e-04 2.406317e-04 -2.525098e-02)	(-2.904325e-04 1.668451e-05 -2.525123e-02)	(-4.358576e-05 2.239471e-04 2.556351e-07)
0.001825      	(-3.440473e-04 2.523929e-04 -2.563130e-02)	(-2.998369e-04 2.523523e-05 -2.563155e-02)	(-4.421036e-05 2.271577e-04 2.565549e-07)
0.00185       	(-3.541733e-04 2.643340e-04 -2.601019e-02)	(-3.093395e-04 3.397160e-05 -2.601045e-02)	(-4.483381e-05 2.303624e-04 2.577659e-07)
0.001875      	(-3.644357e-04 2.764852e-04 -2.638903e-02)	(-3.189797e-04 4.292421e-05 -2.638928e-02)	(-4.545609e-05 2.335610e-04 2.593374e-07)
0.0019        	(-3.747306e-04 2.887539e-04 -2.676528e-02)	(-3.286534e-04 5.200040e-05 -2.676554e-02)	(-4.607717e-05 2.367535e-04 2.612018e-07)
0.001925      	(-3.851993e-04 3.012432e-04 -2.714280e-02)	(-3.385023e-04 6.130345e-05 -2.714306e-02)	(-4.669702e-05 2.399397e-04 2.633530e-07)
0.00195       	(-3.957581e-04 3.139162e-04 -2.751951e-02)	(-3.484424e-04 7.079661e-05 -2.751978e-02)	(-4.731564e-05 2.431196e-04 2.658575e-07)
0.001975      	(-4.065301e-04 3.268316e-04 -2.789818e-02)	(-3.585971e-04 8.053857e-05 -2.789845e-02)	(-4.793301e-05 2.462930e-04 2.686674e-07)
0.002         	(-4.173642e-04 3.397684e-04 -2.827885e-02)	(-3.688151e-04 9.030861e-05 -2.827912e-02)	(-4.854908e-05 2.494598e-04 2.716782e-07)
0.002025      	(-4.283513e-04 3.529763e-04 -2.865899e-02)	(-3.791875e-04 1.003562e-04 -2.865927e-02)	(-4.916388e-05 2.526201e-04 2.749575e-07)
0.00205       	(-4.396603e-04 3.665451e-04 -2.904250e-02)	(-3.898830e-04 1.107714e-04 -2.904278e-02)	(-4.977739e-05 2.557737e-04 2.784301e-07)
0.002075      	(-4.509648e-04 3.801758e-04 -2.942431e-02)	(-4.005753e-04 1.212554e-04 -2.942459e-02)	(-5.038956e-05 2.589204e-04 2.820990e-07)
0.0021        	(-4.625334e-04 3.941351e-04 -2.980815e-02)	(-4.115330e-04 1.320748e-04 -2.980844e-02)	(-5.100039e-05 2.620603e-04 2.860228e-07)
0.002125      	(-4.742984e-04 4.084250e-04 -3.019054e-02)	(-4.226885e-04 1.432315e-04 -3.019083e-02)	(-5.160993e-05 2.651936e-04 2.901528e-07)
0.00215       	(-4.862133e-04 4.228120e-04 -3.057504e-02)	(-4.339951e-04 1.544920e-04 -3.057533e-02)	(-5.221815e-05 2.683200e-04 2.944469e-07)
0.002175      	(-4.983095e-04 4.374062e-04 -3.096032e-02)	(-4.454845e-04 1.659668e-04 -3.096062e-02)	(-5.282501e-05 2.714394e-04 2.989095e-07)
0.0022        	(-5.105810e-04 4.522081e-04 -3.134548e-02)	(-4.571505e-04 1.776565e-04 -3.134578e-02)	(-5.343044e-05 2.745516e-04 3.034986e-07)
0.002225      	(-5.229917e-04 4.671996e-04 -3.172926e-02)	(-4.689572e-04 1.895431e-04 -3.172956e-02)	(-5.403447e-05 2.776565e-04 3.081138e-07)
0.00225       	(-5.355489e-04 4.823462e-04 -3.211358e-02)	(-4.809117e-04 2.015919e-04 -3.211389e-02)	(-5.463712e-05 2.807543e-04 3.128446e-07)
0.002275      	(-5.482539e-04 4.975621e-04 -3.249985e-02)	(-4.930156e-04 2.137174e-04 -3.250017e-02)	(-5.523831e-05 2.838446e-04 3.176304e-07)
0.0023        	(-5.610829e-04 5.129482e-04 -3.288454e-02)	(-5.052449e-04 2.260208e-04 -3.288487e-02)	(-5.583802e-05 2.869274e-04 3.223975e-07)
0.002325      	(-5.740266e-04 5.285138e-04 -3.326697e-02)	(-5.175903e-04 2.385115e-04 -3.326730e-02)	(-5.643623e-05 2.900023e-04 3.271246e-07)
0.00235       	(-5.871015e-04 5.443109e-04 -3.364572e-02)	(-5.300686e-04 2.512413e-04 -3.364605e-02)	(-5.703294e-05 2.930696e-04 3.319071e-07)
0.002375      	(-6.003077e-04 5.601799e-04 -3.402692e-02)	(-5.426796e-04 2.640511e-04 -3.402726e-02)	(-5.762809e-05 2.961288e-04 3.367638e-07)
0.0024        	(-6.136400e-04 5.761220e-04 -3.440989e-02)	(-5.554184e-04 2.769423e-04 -3.441023e-02)	(-5.822160e-05 2.991797e-04 3.415486e-07)
0.002425      	(-6.271025e-04 5.922064e-04 -3.479167e-02)	(-5.682890e-04 2.899846e-04 -3.479202e-02)	(-5.881342e-05 3.022217e-04 3.462387e-07)
0.00245       	(-6.406675e-04 6.084705e-04 -3.517024e-02)	(-5.812640e-04 3.032156e-04 -3.517059e-02)	(-5.940351e-05 3.052549e-04 3.508124e-07)
0.002475      	(-6.543563e-04 6.248564e-04 -3.554848e-02)	(-5.943645e-04 3.165775e-04 -3.554883e-02)	(-5.999181e-05 3.082789e-04 3.553385e-07)
0.0025        	(-6.682024e-04 6.414008e-04 -3.592788e-02)	(-6.076242e-04 3.301076e-04 -3.592824e-02)	(-6.057822e-05 3.112932e-04 3.599890e-07)
0.002525      	(-6.822019e-04 6.580842e-04 -3.630948e-02)	(-6.210392e-04 3.437870e-04 -3.630984e-02)	(-6.116265e-05 3.142973e-04 3.646301e-07)
0.00255       	(-6.963334e-04 6.749019e-04 -3.669079e-02)	(-6.345884e-04 3.576113e-04 -3.669116e-02)	(-6.174498e-05 3.172906e-04 3.691208e-07)
0.002575      	(-7.105768e-04 6.918792e-04 -3.706858e-02)	(-6.482517e-04 3.716067e-04 -3.706896e-02)	(-6.232510e-05 3.202724e-04 3.734941e-07)
0.0026        	(-7.249418e-04 7.089896e-04 -3.744612e-02)	(-6.620389e-04 3.857473e-04 -3.744650e-02)	(-6.290287e-05 3.232422e-04 3.777361e-07)
0.002625      	(-7.394316e-04 7.262186e-04 -3.782348e-02)	(-6.759535e-04 4.000195e-04 -3.782386e-02)	(-6.347811e-05 3.261991e-04 3.821044e-07)
0.00265       	(-7.541086e-04 7.435947e-04 -3.820446e-02)	(-6.900579e-04 4.144526e-04 -3.820485e-02)	(-6.405066e-05 3.291420e-04 3.864941e-07)
0.002675      	(-7.689049e-04 7.610758e-04 -3.858538e-02)	(-7.042846e-04 4.290057e-04 -3.858577e-02)	(-6.462030e-05 3.320701e-04 3.907556e-07)
0.0027        	(-7.838026e-04 7.786895e-04 -3.896378e-02)	(-7.186158e-04 4.437075e-04 -3.896417e-02)	(-6.518682e-05 3.349820e-04 3.948049e-07)
0.002725      	(-7.988349e-04 7.964209e-04 -3.934149e-02)	(-7.330850e-04 4.585443e-04 -3.934189e-02)	(-6.574996e-05 3.378766e-04 3.987537e-07)
0.00275       	(-8.138908e-04 8.141717e-04 -3.971441e-02)	(-7.475814e-04 4.734193e-04 -3.971481e-02)	(-6.630945e-05 3.407525e-04 4.025532e-07)
0.002775      	(-8.291775e-04 8.321716e-04 -4.009184e-02)	(-7.623125e-04 4.885636e-04 -4.009224e-02)	(-6.686499e-05 3.436080e-04 4.065157e-07)
0.0028        	(-8.445539e-04 8.501749e-04 -4.047032e-02)	(-7.771376e-04 5.037332e-04 -4.047073e-02)	(-6.741628e-05 3.464417e-04 4.104482e-07)
0.002825      	(-8.600039e-04 8.682046e-04 -4.084792e-02)	(-7.920410e-04 5.189529e-04 -4.084833e-02)	(-6.796296e-05 3.492517e-04 4.141515e-07)
0.00285       	(-8.756203e-04 8.864943e-04 -4.122234e-02)	(-8.071156e-04 5.344580e-04 -4.122275e-02)	(-6.850469e-05 3.520363e-04 4.177577e-07)
0.002875      	(-8.912577e-04 9.047241e-04 -4.159630e-02)	(-8.222166e-04 5.499307e-04 -4.159672e-02)	(-6.904109e-05 3.547934e-04 4.210019e-07)
0.0029        	(-9.069308e-04 9.229464e-04 -4.196500e-02)	(-8.373591e-04 5.654254e-04 -4.196542e-02)	(-6.957174e-05 3.575210e-04 4.241649e-07)
0.002925      	(-9.227104e-04 9.412889e-04 -4.233734e-02)	(-8.526141e-04 5.810718e-04 -4.233777e-02)	(-7.009625e-05 3.602171e-04 4.273642e-07)
0.00295       	(-9.386321e-04 9.596981e-04 -4.271178e-02)	(-8.680179e-04 5.968186e-04 -4.271221e-02)	(-7.061421e-05 3.628795e-04 4.304429e-07)
0.002975      	(-9.545892e-04 9.781214e-04 -4.308409e-02)	(-8.834640e-04 6.126153e-04 -4.308453e-02)	(-7.112521e-05 3.655061e-04 4.331573e-07)
0.003         	(-9.706833e-04 9.966829e-04 -4.345449e-02)	(-8.990545e-04 6.285881e-04 -4.345492e-02)	(-7.162884e-05 3.680948e-04 4.357827e-07)
0.003025      	(-9.908741e-04 1.037821e-03 -4.352034e-02)	(-9.188928e-04 6.679137e-04 -4.352075e-02)	(-7.198129e-05 3.699071e-04 4.072500e-07)
0.00305       	(-1.014254e-03 1.098503e-03 -4.329964e-02)	(-9.420640e-04 7.275225e-04 -4.330003e-02)	(-7.218977e-05 3.709800e-04 3.845608e-07)
0.003075      	(-1.039872e-03 1.174514e-03 -4.282451e-02)	(-9.676206e-04 8.032172e-04 -4.282487e-02)	(-7.225101e-05 3.712968e-04 3.657768e-07)
0.0031        	(-1.066444e-03 1.260337e-03 -4.213113e-02)	(-9.942843e-04 8.895057e-04 -4.213148e-02)	(-7.215996e-05 3.708313e-04 3.506219e-07)
0.003125      	(-1.089165e-03 1.329918e-03 -4.156132e-02)	(-1.017108e-03 9.596116e-04 -4.156169e-02)	(-7.205737e-05 3.703064e-04 3.700963e-07)
0.00315       	(-1.108160e-03 1.382044e-03 -4.114022e-02)	(-1.036224e-03 1.012357e-03 -4.114061e-02)	(-7.193632e-05 3.696866e-04 3.863204e-07)
0.003175      	(-1.123725e-03 1.417254e-03 -4.088033e-02)	(-1.051923e-03 1.048254e-03 -4.088072e-02)	(-7.180225e-05 3.689995e-04 3.992396e-07)
0.0032        	(-1.136756e-03 1.438438e-03 -4.077932e-02)	(-1.065093e-03 1.070153e-03 -4.077972e-02)	(-7.166281e-05 3.682847e-04 4.071618e-07)
0.003225      	(-1.148481e-03 1.449897e-03 -4.082928e-02)	(-1.076959e-03 1.082334e-03 -4.082969e-02)	(-7.152227e-05 3.675639e-04 4.096898e-07)
0.00325       	(-1.159684e-03 1.455633e-03 -4.099696e-02)	(-1.088304e-03 1.088799e-03 -4.099736e-02)	(-7.137994e-05 3.668336e-04 4.076798e-07)
0.003275      	(-1.171133e-03 1.459148e-03 -4.124974e-02)	(-1.099902e-03 1.093077e-03 -4.125014e-02)	(-7.123131e-05 3.660708e-04 4.031554e-07)
0.0033        	(-1.183363e-03 1.463020e-03 -4.155722e-02)	(-1.112293e-03 1.097775e-03 -4.155762e-02)	(-7.107043e-05 3.652450e-04 3.981144e-07)
0.003325      	(-1.196801e-03 1.469022e-03 -4.190108e-02)	(-1.125909e-03 1.104691e-03 -4.190148e-02)	(-7.089233e-05 3.643306e-04 3.943211e-07)
0.00335       	(-1.211519e-03 1.478036e-03 -4.225686e-02)	(-1.140825e-03 1.114721e-03 -4.225725e-02)	(-7.069447e-05 3.633147e-04 3.924076e-07)
0.003375      	(-1.227264e-03 1.490272e-03 -4.259562e-02)	(-1.156787e-03 1.128074e-03 -4.259601e-02)	(-7.047703e-05 3.621983e-04 3.926096e-07)
0.0034        	(-1.243933e-03 1.505719e-03 -4.290258e-02)	(-1.173690e-03 1.144726e-03 -4.290298e-02)	(-7.024219e-05 3.609926e-04 3.949231e-07)
0.003425      	(-1.261342e-03 1.524085e-03 -4.316622e-02)	(-1.191349e-03 1.164372e-03 -4.316662e-02)	(-6.999297e-05 3.597129e-04 3.992845e-07)
0.00345       	(-1.279184e-03 1.544698e-03 -4.338645e-02)	(-1.209452e-03 1.186324e-03 -4.338685e-02)	(-6.973215e-05 3.583738e-04 4.051166e-07)
0.003475      	(-1.297136e-03 1.566798e-03 -4.355787e-02)	(-1.227674e-03 1.209814e-03 -4.355828e-02)	(-6.946159e-05 3.569847e-04 4.119321e-07)
0.0035        	(-1.314831e-03 1.589492e-03 -4.367933e-02)	(-1.245649e-03 1.233943e-03 -4.367975e-02)	(-6.918183e-05 3.555483e-04 4.191268e-07)
0.003525      	(-1.331998e-03 1.611886e-03 -4.376040e-02)	(-1.263105e-03 1.257823e-03 -4.376083e-02)	(-6.889251e-05 3.540628e-04 4.265678e-07)
0.00355       	(-1.348511e-03 1.633355e-03 -4.380989e-02)	(-1.279918e-03 1.280833e-03 -4.381032e-02)	(-6.859249e-05 3.525225e-04 4.336299e-07)
0.003575      	(-1.364185e-03 1.653292e-03 -4.383196e-02)	(-1.295904e-03 1.302372e-03 -4.383240e-02)	(-6.828044e-05 3.509202e-04 4.397435e-07)
0.0036        	(-1.379036e-03 1.671343e-03 -4.384080e-02)	(-1.311081e-03 1.322092e-03 -4.384125e-02)	(-6.795534e-05 3.492509e-04 4.447048e-07)
0.003625      	(-1.393089e-03 1.687409e-03 -4.384200e-02)	(-1.325472e-03 1.339898e-03 -4.384245e-02)	(-6.761654e-05 3.475111e-04 4.480185e-07)
0.00365       	(-1.406354e-03 1.701369e-03 -4.383866e-02)	(-1.339089e-03 1.355666e-03 -4.383911e-02)	(-6.726447e-05 3.457032e-04 4.498519e-07)
0.003675      	(-1.418955e-03 1.713477e-03 -4.383720e-02)	(-1.352055e-03 1.369648e-03 -4.383765e-02)	(-6.689955e-05 3.438291e-04 4.498525e-07)
0.0037        	(-1.431209e-03 1.724214e-03 -4.384477e-02)	(-1.364687e-03 1.382322e-03 -4.384522e-02)	(-6.652241e-05 3.418922e-04 4.479661e-07)
0.003725      	(-1.443114e-03 1.733792e-03 -4.385850e-02)	(-1.376980e-03 1.393895e-03 -4.385894e-02)	(-6.613397e-05 3.398971e-04 4.443212e-07)
0.00375       	(-1.455014e-03 1.742801e-03 -4.388554e-02)	(-1.389279e-03 1.404952e-03 -4.388598e-02)	(-6.573517e-05 3.378489e-04 4.394858e-07)
0.003775      	(-1.467136e-03 1.751767e-03 -4.392786e-02)	(-1.401809e-03 1.416015e-03 -4.392829e-02)	(-6.532693e-05 3.357521e-04 4.335758e-07)
0.0038        	(-1.479402e-03 1.760813e-03 -4.397934e-02)	(-1.414492e-03 1.427202e-03 -4.397977e-02)	(-6.491002e-05 3.336107e-04 4.267430e-07)
0.003825      	(-1.491997e-03 1.770280e-03 -4.404117e-02)	(-1.427512e-03 1.438852e-03 -4.404159e-02)	(-6.448501e-05 3.314276e-04 4.193524e-07)
0.00385       	(-1.505063e-03 1.780453e-03 -4.411255e-02)	(-1.441010e-03 1.451248e-03 -4.411296e-02)	(-6.405236e-05 3.292054e-04 4.115092e-07)
0.003875      	(-1.518323e-03 1.791137e-03 -4.418404e-02)	(-1.454710e-03 1.464191e-03 -4.418444e-02)	(-6.361247e-05 3.269460e-04 4.035581e-07)
0.0039        	(-1.532053e-03 1.802670e-03 -4.426193e-02)	(-1.468887e-03 1.478018e-03 -4.426233e-02)	(-6.316566e-05 3.246511e-04 3.953454e-07)
0.003925      	(-1.546180e-03 1.814958e-03 -4.434030e-02)	(-1.483467e-03 1.492636e-03 -4.434069e-02)	(-6.271224e-05 3.223222e-04 3.868302e-07)
0.00395       	(-1.560260e-03 1.827526e-03 -4.440704e-02)	(-1.498008e-03 1.507565e-03 -4.440741e-02)	(-6.225251e-05 3.199609e-04 3.780115e-07)
0.003975      	(-1.574491e-03 1.840468e-03 -4.446870e-02)	(-1.512704e-03 1.522899e-03 -4.446907e-02)	(-6.178678e-05 3.175688e-04 3.688880e-07)
0.004         	(-1.588762e-03 1.853572e-03 -4.452080e-02)	(-1.527446e-03 1.538425e-03 -4.452116e-02)	(-6.131538e-05 3.151475e-04 3.593612e-07)
0.004025      	(-1.602700e-03 1.866389e-03 -4.455549e-02)	(-1.541861e-03 1.553690e-03 -4.455584e-02)	(-6.083867e-05 3.126990e-04 3.496149e-07)
0.00405       	(-1.616485e-03 1.879029e-03 -4.458068e-02)	(-1.556128e-03 1.568804e-03 -4.458102e-02)	(-6.035702e-05 3.102251e-04 3.395478e-07)
0.004075      	(-1.630030e-03 1.891290e-03 -4.459455e-02)	(-1.570159e-03 1.583562e-03 -4.459488e-02)	(-5.987078e-05 3.077275e-04 3.291282e-07)
0.0041        	(-1.643065e-03 1.902879e-03 -4.459117e-02)	(-1.583685e-03 1.597671e-03 -4.459148e-02)	(-5.938034e-05 3.052084e-04 3.184145e-07)
0.004125      	(-1.655818e-03 1.913952e-03 -4.458117e-02)	(-1.596932e-03 1.611283e-03 -4.458148e-02)	(-5.888602e-05 3.026693e-04 3.076295e-07)
0.00415       	(-1.668137e-03 1.924315e-03 -4.456328e-02)	(-1.609749e-03 1.624204e-03 -4.456358e-02)	(-5.838813e-05 3.001117e-04 2.966719e-07)
0.004175      	(-1.680179e-03 1.934180e-03 -4.453617e-02)	(-1.622292e-03 1.636643e-03 -4.453646e-02)	(-5.788698e-05 2.975374e-04 2.856857e-07)
0.0042        	(-1.691953e-03 1.943558e-03 -4.450802e-02)	(-1.634570e-03 1.648610e-03 -4.450830e-02)	(-5.738278e-05 2.949474e-04 2.747299e-07)
0.004225      	(-1.703577e-03 1.952619e-03 -4.448003e-02)	(-1.646701e-03 1.660276e-03 -4.448030e-02)	(-5.687577e-05 2.923429e-04 2.639056e-07)
0.00425       	(-1.714990e-03 1.961365e-03 -4.445020e-02)	(-1.658623e-03 1.671640e-03 -4.445046e-02)	(-5.636620e-05 2.897252e-04 2.532373e-07)
0.004275      	(-1.726282e-03 1.969902e-03 -4.442273e-02)	(-1.670427e-03 1.682806e-03 -4.442297e-02)	(-5.585425e-05 2.870953e-04 2.429150e-07)
0.0043        	(-1.737628e-03 1.978441e-03 -4.440167e-02)	(-1.682288e-03 1.693987e-03 -4.440191e-02)	(-5.534005e-05 2.844539e-04 2.328896e-07)
0.004325      	(-1.748940e-03 1.986953e-03 -4.437924e-02)	(-1.694116e-03 1.705152e-03 -4.437947e-02)	(-5.482378e-05 2.818017e-04 2.232505e-07)
0.00435       	(-1.760366e-03 1.995628e-03 -4.436405e-02)	(-1.706060e-03 1.716488e-03 -4.436426e-02)	(-5.430557e-05 2.791396e-04 2.139395e-07)
0.004375      	(-1.771959e-03 2.004506e-03 -4.435476e-02)	(-1.718173e-03 1.728037e-03 -4.435497e-02)	(-5.378555e-05 2.764682e-04 2.049473e-07)
0.0044        	(-1.783642e-03 2.013622e-03 -4.434391e-02)	(-1.730379e-03 1.739833e-03 -4.434411e-02)	(-5.326391e-05 2.737884e-04 1.961904e-07)
0.004425      	(-1.795475e-03 2.022977e-03 -4.433741e-02)	(-1.742734e-03 1.751876e-03 -4.433760e-02)	(-5.274078e-05 2.711010e-04 1.877453e-07)
0.00445       	(-1.807306e-03 2.032403e-03 -4.433208e-02)	(-1.755089e-03 1.763996e-03 -4.433226e-02)	(-5.221633e-05 2.684068e-04 1.795672e-07)
0.004475      	(-1.819089e-03 2.041903e-03 -4.432054e-02)	(-1.767398e-03 1.776197e-03 -4.432071e-02)	(-5.169072e-05 2.657066e-04 1.716595e-07)
0.0045        	(-1.831025e-03 2.051635e-03 -4.431115e-02)	(-1.779861e-03 1.788634e-03 -4.431132e-02)	(-5.116411e-05 2.630012e-04 1.639830e-07)
0.004525      	(-1.842872e-03 2.061310e-03 -4.429982e-02)	(-1.792235e-03 1.801019e-03 -4.429998e-02)	(-5.063665e-05 2.602915e-04 1.564610e-07)
0.00455       	(-1.854568e-03 2.070898e-03 -4.428061e-02)	(-1.804460e-03 1.813320e-03 -4.428076e-02)	(-5.010852e-05 2.575783e-04 1.489826e-07)
0.004575      	(-1.866298e-03 2.080542e-03 -4.426156e-02)	(-1.816719e-03 1.825680e-03 -4.426170e-02)	(-4.957985e-05 2.548623e-04 1.416910e-07)
0.0046        	(-1.877798e-03 2.089951e-03 -4.423820e-02)	(-1.828747e-03 1.837806e-03 -4.423834e-02)	(-4.905079e-05 2.521442e-04 1.345061e-07)
0.004625      	(-1.889012e-03 2.099075e-03 -4.420585e-02)	(-1.840491e-03 1.849651e-03 -4.420598e-02)	(-4.852150e-05 2.494249e-04 1.273676e-07)
0.00465       	(-1.900175e-03 2.108140e-03 -4.417308e-02)	(-1.852183e-03 1.861435e-03 -4.417320e-02)	(-4.799212e-05 2.467051e-04 1.203121e-07)
0.004675      	(-1.911157e-03 2.116978e-03 -4.413876e-02)	(-1.863694e-03 1.872993e-03 -4.413888e-02)	(-4.746278e-05 2.439854e-04 1.133686e-07)
0.0047        	(-1.921990e-03 2.125640e-03 -4.409943e-02)	(-1.875056e-03 1.884373e-03 -4.409953e-02)	(-4.693364e-05 2.412667e-04 1.063665e-07)
0.004725      	(-1.932617e-03 2.134068e-03 -4.405984e-02)	(-1.886212e-03 1.895519e-03 -4.405993e-02)	(-4.640480e-05 2.385495e-04 9.954612e-08)
0.00475       	(-1.943183e-03 2.142411e-03 -4.402081e-02)	(-1.897306e-03 1.906577e-03 -4.402090e-02)	(-4.587639e-05 2.358345e-04 9.284927e-08)
0.004775      	(-1.953524e-03 2.150520e-03 -4.397708e-02)	(-1.908175e-03 1.917398e-03 -4.397716e-02)	(-4.534851e-05 2.331222e-04 8.633313e-08)
0.0048        	(-1.963846e-03 2.158612e-03 -4.393604e-02)	(-1.919025e-03 1.928199e-03 -4.393612e-02)	(-4.482129e-05 2.304132e-04 8.003411e-08)
0.004825      	(-1.974179e-03 2.166712e-03 -4.389769e-02)	(-1.929884e-03 1.939004e-03 -4.389777e-02)	(-4.429483e-05 2.277081e-04 7.400845e-08)
0.00485       	(-1.984282e-03 2.174619e-03 -4.385569e-02)	(-1.940513e-03 1.949612e-03 -4.385575e-02)	(-4.376924e-05 2.250074e-04 6.807746e-08)
0.004875      	(-1.994667e-03 2.182804e-03 -4.382079e-02)	(-1.951422e-03 1.960493e-03 -4.382085e-02)	(-4.324459e-05 2.223115e-04 6.245413e-08)
0.0049        	(-2.005086e-03 2.191047e-03 -4.378822e-02)	(-1.962365e-03 1.971426e-03 -4.378827e-02)	(-4.272094e-05 2.196208e-04 5.720894e-08)
0.004925      	(-2.015092e-03 2.198935e-03 -4.374895e-02)	(-1.972893e-03 1.982000e-03 -4.374900e-02)	(-4.219839e-05 2.169356e-04 5.216433e-08)
0.00495       	(-2.025327e-03 2.207078e-03 -4.371458e-02)	(-1.983650e-03 1.992821e-03 -4.371463e-02)	(-4.167702e-05 2.142566e-04 4.741746e-08)
0.004975      	(-2.035694e-03 2.215365e-03 -4.368445e-02)	(-1.994537e-03 2.003781e-03 -4.368449e-02)	(-4.115690e-05 2.115840e-04 4.307960e-08)
0.005         	(-2.045797e-03 2.223466e-03 -4.364936e-02)	(-2.005159e-03 2.014548e-03 -4.364940e-02)	(-4.063814e-05 2.089184e-04 3.888100e-08)
0.005025      	(-2.056053e-03 2.231710e-03 -4.361797e-02)	(-2.015933e-03 2.025451e-03 -4.361801e-02)	(-4.012075e-05 2.062599e-04 3.508463e-08)
0.00505       	(-2.066295e-03 2.239939e-03 -4.358800e-02)	(-2.026690e-03 2.036330e-03 -4.358803e-02)	(-3.960484e-05 2.036089e-04 3.174358e-08)
0.005075      	(-2.076263e-03 2.247966e-03 -4.355199e-02)	(-2.037173e-03 2.047000e-03 -4.355202e-02)	(-3.909046e-05 2.009658e-04 2.859659e-08)
0.0051        	(-2.086214e-03 2.255947e-03 -4.351672e-02)	(-2.047637e-03 2.057616e-03 -4.351675e-02)	(-3.857767e-05 1.983310e-04 2.587187e-08)
0.005125      	(-2.096199e-03 2.263926e-03 -4.348340e-02)	(-2.058132e-03 2.068221e-03 -4.348342e-02)	(-3.806655e-05 1.957048e-04 2.359365e-08)
0.00515       	(-2.105994e-03 2.271785e-03 -4.344637e-02)	(-2.068437e-03 2.078697e-03 -4.344639e-02)	(-3.755722e-05 1.930879e-04 2.155350e-08)
0.005175      	(-2.115713e-03 2.279512e-03 -4.340950e-02)	(-2.078664e-03 2.089032e-03 -4.340952e-02)	(-3.704974e-05 1.904804e-04 1.996142e-08)