# Time Dx Dy Dz magD
0.0001 0 1.48734e-11 -1.24922e-12 1.49257e-11
0.0001 0 1.48734e-11 -1.24922e-12 1.49257e-11
0.0002 0 1.22633e-10 -1.23179e-11 1.2325e-10
0.0002 0 1.22633e-10 -1.23179e-11 1.2325e-10
0.0003 0 5.30074e-10 -6.77664e-11 5.34388e-10
0.0003 0 5.30074e-10 -6.77664e-11 5.34388e-10
0.0004 0 1.55591e-09 -2.82911e-10 1.58142e-09
0.0004 0 1.55591e-09 -2.82911e-10 1.58142e-09
0.0005 0 3.54539e-09 -1.00971e-09 3.68636e-09
0.0005 0 3.54539e-09 -1.00971e-09 3.68636e-09
0.0006 0 6.80269e-09 -3.20951e-09 7.52181e-09
0.0006 0 6.80269e-09 -3.20951e-09 7.52181e-09
0.0007 0 1.16604e-08 -9.1744e-09 1.48369e-08
0.0007 0 1.16604e-08 -9.1744e-09 1.48369e-08
0.0008 0 1.86149e-08 -2.36578e-08 3.01032e-08
0.0008 0 1.86149e-08 -2.36578e-08 3.01032e-08
0.0009 0 2.84468e-08 -5.53207e-08 6.22061e-08
0.0009 0 2.84468e-08 -5.53207e-08 6.22061e-08
0.001 0 4.22668e-08 -1.18187e-07 1.25517e-07
0.001 0 4.22668e-08 -1.18187e-07 1.25517e-07
0.0011 0 6.14054e-08 -2.3263e-07 2.40598e-07
0.0011 0 6.14054e-08 -2.3263e-07 2.40598e-07
0.0012 0 8.73181e-08 -4.25419e-07 4.34288e-07
0.0012 0 8.73181e-08 -4.25419e-07 4.34288e-07
0.0013 0 1.21539e-07 -7.28489e-07 7.38558e-07
0.0013 0 1.21539e-07 -7.28489e-07 7.38558e-07
0.0014 0 1.65703e-07 -1.17648e-06 1.1881e-06
0.0014 0 1.65703e-07 -1.17648e-06 1.1881e-06
0.0015 0 2.21509e-07 -1.80346e-06 1.81701e-06
0.0015 0 2.21509e-07 -1.80346e-06 1.81701e-06
0.0016 0 2.90799e-07 -2.63936e-06 2.65533e-06
0.0016 0 2.90799e-07 -2.63936e-06 2.65533e-06
0.0017 0 3.75553e-07 -3.70707e-06 3.72604e-06
0.0017 0 3.75553e-07 -3.70707e-06 3.72604e-06
0.0018 0 4.78021e-07 -5.02045e-06 5.04315e-06
0.0018 0 4.78021e-07 -5.02045e-06 5.04315e-06
0.0019 0 6.00798e-07 -6.58372e-06 6.61108e-06
0.0019 0 6.00798e-07 -6.58372e-06 6.61108e-06
0.002 0 7.46933e-07 -8.39207e-06 8.42525e-06
0.002 0 7.46933e-07 -8.39207e-06 8.42525e-06
0.0021 0 9.20014e-07 -1.04331e-05 1.04736e-05
0.0021 0 9.20014e-07 -1.04331e-05 1.04736e-05
0.0022 0 1.12427e-06 -1.26887e-05 1.27384e-05
0.0022 0 1.12427e-06 -1.26887e-05 1.27384e-05
0.0023 0 1.36443e-06 -1.51373e-05 1.51987e-05
0.0023 0 1.36443e-06 -1.51373e-05 1.51987e-05
0.0024 0 1.64584e-06 -1.77555e-05 1.78316e-05
0.0024 0 1.64584e-06 -1.77555e-05 1.78316e-05
0.0025 0 1.97444e-06 -2.05194e-05 2.06142e-05
0.0025 0 1.97444e-06 -2.05194e-05 2.06142e-05
0.0026 0 2.35645e-06 -2.34059e-05 2.35242e-05
0.0026 0 2.35645e-06 -2.34059e-05 2.35242e-05
0.0027 0 2.79859e-06 -2.63929e-05 2.65409e-05
0.0027 0 2.79859e-06 -2.63929e-05 2.65409e-05
0.0028 0 3.30799e-06 -2.94601e-05 2.96453e-05
0.0028 0 3.30799e-06 -2.94601e-05 2.96453e-05
0.0029 0 3.8921e-06 -3.25886e-05 3.28202e-05
0.0029 0 3.8921e-06 -3.25886e-05 3.28202e-05
0.003 0 4.55888e-06 -3.5761e-05 3.60504e-05
0.003 0 4.55888e-06 -3.5761e-05 3.60504e-05
0.0031 0 5.31665e-06 -3.89611e-05 3.93222e-05
0.0031 0 5.31665e-06 -3.89611e-05 3.93222e-05
0.0032 0 6.17433e-06 -4.21737e-05 4.26233e-05
0.0032 0 6.17433e-06 -4.21737e-05 4.26233e-05
0.0033 0 7.14143e-06 -4.53841e-05 4.59425e-05
0.0033 0 7.14143e-06 -4.53841e-05 4.59425e-05
0.0034 0 8.22798e-06 -4.85777e-05 4.92696e-05
0.0034 0 8.22798e-06 -4.85777e-05 4.92696e-05
0.0035 0 9.44483e-06 -5.17395e-05 5.25945e-05
0.0035 0 9.44483e-06 -5.17395e-05 5.25945e-05
0.0036 0 1.08034e-05 -5.4853e-05 5.59068e-05
0.0036 0 1.08034e-05 -5.4853e-05 5.59068e-05
0.0037 0 1.23157e-05 -5.78994e-05 5.91947e-05
0.0037 0 1.23157e-05 -5.78994e-05 5.91947e-05
0.0038 0 1.39932e-05 -6.0856e-05 6.2444e-05
0.0038 0 1.39932e-05 -6.0856e-05 6.2444e-05
0.0039 0 1.58466e-05 -6.36948e-05 6.56364e-05
0.0039 0 1.58466e-05 -6.36948e-05 6.56364e-05
0.004 0 1.78854e-05 -6.63812e-05 6.87485e-05
0.004 0 1.78854e-05 -6.63812e-05 6.87485e-05
0.0041 0 2.01166e-05 -6.88732e-05 7.17509e-05
0.0041 0 2.01166e-05 -6.88732e-05 7.17509e-05
0.0042 0 2.25449e-05 -7.11218e-05 7.46095e-05
0.0042 0 2.25449e-05 -7.11218e-05 7.46095e-05
0.0043 0 2.51718e-05 -7.3073e-05 7.7287e-05
0.0043 0 2.51718e-05 -7.3073e-05 7.7287e-05
0.0044 0 2.79958e-05 -7.46712e-05 7.97468e-05
0.0044 0 2.79958e-05 -7.46712e-05 7.97468e-05
0.0045 0 3.10121e-05 -7.58627e-05 8.19566e-05
0.0045 0 3.10121e-05 -7.58627e-05 8.19566e-05
0.0046 0 3.42129e-05 -7.66004e-05 8.38936e-05
0.0046 0 3.42129e-05 -7.66004e-05 8.38936e-05
0.0047 0 3.75876e-05 -7.68472e-05 8.55472e-05
0.0047 0 3.75876e-05 -7.68472e-05 8.55472e-05
0.0048 0 4.11239e-05 -7.65783e-05 8.69219e-05
0.0048 0 4.11239e-05 -7.65783e-05 8.69219e-05
0.0049 0 4.48082e-05 -7.57823e-05 8.80382e-05
0.0049 0 4.48082e-05 -7.57823e-05 8.80382e-05
0.005 0 4.86261e-05 -7.44604e-05 8.89317e-05
0.005 0 4.86261e-05 -7.44604e-05 8.89317e-05
0.0051 0 5.25632e-05 -7.26249e-05 8.96508e-05
0.0051 0 5.25632e-05 -7.26249e-05 8.96508e-05
0.0052 0 5.66053e-05 -7.02968e-05 9.02541e-05
0.0052 0 5.66053e-05 -7.02968e-05 9.02541e-05
0.0053 0 6.07386e-05 -6.75032e-05 9.08067e-05
0.0053 0 6.07386e-05 -6.75032e-05 9.08067e-05
0.0054 0 6.49492e-05 -6.42751e-05 9.13766e-05
0.0054 0 6.49492e-05 -6.42751e-05 9.13766e-05
0.0055 0 6.9223e-05 -6.06449e-05 9.20306e-05
0.0055 0 6.9223e-05 -6.06449e-05 9.20306e-05
0.0056 0 7.35447e-05 -5.66453e-05 9.28306e-05
0.0056 0 7.35447e-05 -5.66453e-05 9.28306e-05
0.0057 0 7.78966e-05 -5.23076e-05 9.38295e-05
0.0057 0 7.78966e-05 -5.23076e-05 9.38295e-05
0.0058 0 8.22577e-05 -4.76616e-05 9.50682e-05
0.0058 0 8.22577e-05 -4.76616e-05 9.50682e-05
0.0059 0 8.66023e-05 -4.27353e-05 9.65726e-05
0.0059 0 8.66023e-05 -4.27353e-05 9.65726e-05
0.006 0 9.08989e-05 -3.75549e-05 9.83513e-05
0.006 0 9.08989e-05 -3.75549e-05 9.83513e-05
0.0061 0 9.51094e-05 -3.21457e-05 0.000100395
0.0061 0 9.51094e-05 -3.21457e-05 0.000100395
0.0062 0 9.91897e-05 -2.65329e-05 0.000102677
0.0062 0 9.91897e-05 -2.65329e-05 0.000102677
0.0063 0 0.000103088 -2.07419e-05 0.000105154
0.0063 0 0.000103088 -2.07419e-05 0.000105154
0.0064 0 0.000106749 -1.48003e-05 0.00010777
0.0064 0 0.000106749 -1.48003e-05 0.00010777
0.0065 0 0.000110113 -8.73832e-06 0.000110459
0.0065 0 0.000110113 -8.73832e-06 0.000110459
0.0066 0 0.000113119 -2.58962e-06 0.000113148
0.0066 0 0.000113119 -2.58962e-06 0.000113148
0.0067 0 0.000115707 3.60817e-06 0.000115763
0.0067 0 0.000115707 3.60817e-06 0.000115763
0.0068 0 0.000117824 9.81397e-06 0.000118232
0.0068 0 0.000117824 9.81397e-06 0.000118232
0.0069 0 0.000119423 1.59846e-05 0.000120488
0.0069 0 0.000119423 1.59846e-05 0.000120488
0.007 0 0.000120464 2.20742e-05 0.00012247
0.007 0 0.000120464 2.20742e-05 0.00012247
0.0071 0 0.000120917 2.80379e-05 0.000124125
0.0071 0 0.000120917 2.80379e-05 0.000124125
0.0072 0 0.00012074 3.38312e-05 0.00012539
0.0072 0 0.00012074 3.38312e-05 0.00012539
0.0073 0 0.000119909 3.94063e-05 0.000126218
0.0073 0 0.000119909 3.94063e-05 0.000126218
0.0074 0 0.000118405 4.47139e-05 0.000126567
0.0074 0 0.000118405 4.47139e-05 0.000126567
0.0075 0 0.000116227 4.9703e-05 0.000126408
0.0075 0 0.000116227 4.9703e-05 0.000126408
0.0076 0 0.000113394 5.43264e-05 0.000125736
0.0076 0 0.000113394 5.43264e-05 0.000125736
0.0077 0 0.000109937 5.85442e-05 0.000124554
0.0077 0 0.000109937 5.85442e-05 0.000124554
0.0078 0 0.000105898 6.23242e-05 0.000122877
0.0078 0 0.000105898 6.23242e-05 0.000122877
0.0079 0 0.000101326 6.56409e-05 0.00012073
0.0079 0 0.000101326 6.56409e-05 0.00012073
0.008 0 9.62749e-05 6.84765e-05 0.000118143
0.008 0 9.62749e-05 6.84765e-05 0.000118143
0.0081 0 9.08044e-05 7.08202e-05 0.000115156
0.0081 0 9.08044e-05 7.08202e-05 0.000115156
0.0082 0 8.49752e-05 7.26687e-05 0.00011181
0.0082 0 8.49752e-05 7.26687e-05 0.00011181
0.0083 0 7.88486e-05 7.40252e-05 0.000108152
0.0083 0 7.88486e-05 7.40252e-05 0.000108152
0.0084 0 7.24854e-05 7.48991e-05 0.000104231
0.0084 0 7.24854e-05 7.48991e-05 0.000104231
0.0085 0 6.59444e-05 7.53048e-05 0.000100097
0.0085 0 6.59444e-05 7.53048e-05 0.000100097
0.0086 0 5.92819e-05 7.52608e-05 9.58046e-05
0.0086 0 5.92819e-05 7.52608e-05 9.58046e-05
0.0087 0 5.25512e-05 7.47887e-05 9.14055e-05
0.0087 0 5.25512e-05 7.47887e-05 9.14055e-05
0.0088 0 4.58028e-05 7.39123e-05 8.69536e-05
0.0088 0 4.58028e-05 7.39123e-05 8.69536e-05
0.0089 0 3.90849e-05 7.26573e-05 8.25028e-05
0.0089 0 3.90849e-05 7.26573e-05 8.25028e-05
0.009 0 3.24435e-05 7.10502e-05 7.8107e-05
0.009 0 3.24435e-05 7.10502e-05 7.8107e-05
0.0091 0 2.59238e-05 6.91179e-05 7.38196e-05
0.0091 0 2.59238e-05 6.91179e-05 7.38196e-05
0.0092 0 1.95693e-05 6.68884e-05 6.96923e-05
0.0092 0 1.95693e-05 6.68884e-05 6.96923e-05
0.0093 0 1.3425e-05 6.43898e-05 6.57744e-05
0.0093 0 1.3425e-05 6.43898e-05 6.57744e-05
0.0094 0 7.53458e-06 6.16511e-05 6.21098e-05
0.0094 0 7.53458e-06 6.16511e-05 6.21098e-05
0.0095 0 1.94044e-06 5.8702e-05 5.8734e-05
0.0095 0 1.94044e-06 5.8702e-05 5.8734e-05
0.0096 0 -3.31798e-06 5.55745e-05 5.56734e-05
0.0096 0 -3.31798e-06 5.55745e-05 5.56734e-05
0.0097 0 -8.20263e-06 5.23014e-05 5.29407e-05
0.0097 0 -8.20263e-06 5.23014e-05 5.29407e-05
0.0098 0 -1.26793e-05 4.89165e-05 5.0533e-05
0.0098 0 -1.26793e-05 4.89165e-05 5.0533e-05
0.0099 0 -1.67237e-05 4.54539e-05 4.84328e-05
0.0099 0 -1.67237e-05 4.54539e-05 4.84328e-05
0.01 0 -2.03182e-05 4.19486e-05 4.66102e-05
0.01 0 -2.03182e-05 4.19486e-05 4.66102e-05
0.0101 0 -2.34537e-05 3.84354e-05 4.50262e-05
0.0101 0 -2.34537e-05 3.84354e-05 4.50262e-05
0.0102 0 -2.61301e-05 3.49465e-05 4.36353e-05
0.0102 0 -2.61301e-05 3.49465e-05 4.36353e-05
0.0103 0 -2.83546e-05 3.15104e-05 4.23897e-05
0.0103 0 -2.83546e-05 3.15104e-05 4.23897e-05
0.0104 0 -3.01392e-05 2.81521e-05 4.12421e-05
0.0104 0 -3.01392e-05 2.81521e-05 4.12421e-05
0.0105 0 -3.14973e-05 2.48925e-05 4.01462e-05
0.0105 0 -3.14973e-05 2.48925e-05 4.01462e-05
0.0106 0 -3.24422e-05 2.1749e-05 3.90579e-05
0.0106 0 -3.24422e-05 2.1749e-05 3.90579e-05
0.0107 0 -3.29864e-05 1.87364e-05 3.79362e-05
0.0107 0 -3.29864e-05 1.87364e-05 3.79362e-05
0.0108 0 -3.31393e-05 1.5868e-05 3.67424e-05
0.0108 0 -3.31393e-05 1.5868e-05 3.67424e-05
0.0109 0 -3.29156e-05 1.31569e-05 3.54477e-05
0.0109 0 -3.29156e-05 1.31569e-05 3.54477e-05
0.011 0 -3.23399e-05 1.06156e-05 3.40376e-05
0.011 0 -3.23399e-05 1.06156e-05 3.40376e-05
0.0111 0 -3.14444e-05 8.25364e-06 3.25096e-05
0.0111 0 -3.14444e-05 8.25364e-06 3.25096e-05
0.0112 0 -3.02716e-05 6.07753e-06 3.08756e-05
0.0112 0 -3.02716e-05 6.07753e-06 3.08756e-05
0.0113 0 -2.88681e-05 4.08839e-06 2.91562e-05
0.0113 0 -2.88681e-05 4.08839e-06 2.91562e-05
0.0114 0 -2.7286e-05 2.28264e-06 2.73813e-05
0.0114 0 -2.7286e-05 2.28264e-06 2.73813e-05
0.0115 0 -2.55772e-05 6.51542e-07 2.55855e-05
0.0115 0 -2.55772e-05 6.51542e-07 2.55855e-05
0.0116 0 -2.37931e-05 -8.17561e-07 2.38071e-05
0.0116 0 -2.37931e-05 -8.17561e-07 2.38071e-05
0.0117 0 -2.19825e-05 -2.14049e-06 2.20865e-05
0.0117 0 -2.19825e-05 -2.14049e-06 2.20865e-05
0.0118 0 -2.01903e-05 -3.33542e-06 2.04639e-05
0.0118 0 -2.01903e-05 -3.33542e-06 2.04639e-05
0.0119 0 -1.84581e-05 -4.42242e-06 1.89805e-05
0.0119 0 -1.84581e-05 -4.42242e-06 1.89805e-05
0.012 0 -1.68245e-05 -5.42298e-06 1.76769e-05
0.012 0 -1.68245e-05 -5.42298e-06 1.76769e-05
0.0121 0 -1.53237e-05 -6.35949e-06 1.65909e-05
0.0121 0 -1.53237e-05 -6.35949e-06 1.65909e-05
0.0122 0 -1.39865e-05 -7.25453e-06 1.57559e-05
0.0122 0 -1.39865e-05 -7.25453e-06 1.57559e-05
0.0123 0 -1.28398e-05 -8.13082e-06 1.51977e-05
0.0123 0 -1.28398e-05 -8.13082e-06 1.51977e-05
0.0124 0 -1.19039e-05 -9.01115e-06 1.49299e-05
0.0124 0 -1.19039e-05 -9.01115e-06 1.49299e-05
0.0125 0 -1.1193e-05 -9.91766e-06 1.49547e-05
0.0125 0 -1.1193e-05 -9.91766e-06 1.49547e-05
0.0126 0 -1.07158e-05 -1.08711e-05 1.52647e-05
0.0126 0 -1.07158e-05 -1.08711e-05 1.52647e-05
0.0127 0 -1.04751e-05 -1.18904e-05 1.58464e-05
0.0127 0 -1.04751e-05 -1.18904e-05 1.58464e-05
0.0128 0 -1.04678e-05 -1.2991e-05 1.66835e-05
0.0128 0 -1.04678e-05 -1.2991e-05 1.66835e-05
0.0129 0 -1.06923e-05 -1.41851e-05 1.77636e-05
0.0129 0 -1.06923e-05 -1.41851e-05 1.77636e-05
0.013 0 -1.11481e-05 -1.54826e-05 1.90786e-05
0.013 0 -1.11481e-05 -1.54826e-05 1.90786e-05
0.0131 0 -1.18273e-05 -1.68929e-05 2.06217e-05
0.0131 0 -1.18273e-05 -1.68929e-05 2.06217e-05
0.0132 0 -1.27154e-05 -1.84229e-05 2.23849e-05
0.0132 0 -1.27154e-05 -1.84229e-05 2.23849e-05
0.0133 0 -1.37963e-05 -2.00752e-05 2.43588e-05
0.0133 0 -1.37963e-05 -2.00752e-05 2.43588e-05
0.0134 0 -1.50522e-05 -2.18489e-05 2.65319e-05
0.0134 0 -1.50522e-05 -2.18489e-05 2.65319e-05
0.0135 0 -1.64645e-05 -2.37396e-05 2.88902e-05
0.0135 0 -1.64645e-05 -2.37396e-05 2.88902e-05
0.0136 0 -1.80145e-05 -2.57396e-05 3.14173e-05
0.0136 0 -1.80145e-05 -2.57396e-05 3.14173e-05
0.0137 0 -1.96833e-05 -2.78382e-05 3.4094e-05
0.0137 0 -1.96833e-05 -2.78382e-05 3.4094e-05
0.0138 0 -2.14526e-05 -3.00217e-05 3.68987e-05
0.0138 0 -2.14526e-05 -3.00217e-05 3.68987e-05
0.0139 0 -2.33046e-05 -3.22736e-05 3.98081e-05
0.0139 0 -2.33046e-05 -3.22736e-05 3.98081e-05
0.014 0 -2.52226e-05 -3.45747e-05 4.2797e-05
0.014 0 -2.52226e-05 -3.45747e-05 4.2797e-05
0.0141 0 -2.71909e-05 -3.69036e-05 4.58391e-05
0.0141 0 -2.71909e-05 -3.69036e-05 4.58391e-05
0.0142 0 -2.91956e-05 -3.9237e-05 4.89074e-05
0.0142 0 -2.91956e-05 -3.9237e-05 4.89074e-05
0.0143 0 -3.12241e-05 -4.155e-05 5.19744e-05
0.0143 0 -3.12241e-05 -4.155e-05 5.19744e-05
0.0144 0 -3.3265e-05 -4.38162e-05 5.50129e-05
0.0144 0 -3.3265e-05 -4.38162e-05 5.50129e-05
0.0145 0 -3.53091e-05 -4.60087e-05 5.7996e-05
0.0145 0 -3.53091e-05 -4.60087e-05 5.7996e-05
0.0146 0 -3.73483e-05 -4.80999e-05 6.08974e-05
0.0146 0 -3.73483e-05 -4.80999e-05 6.08974e-05
0.0147 0 -3.93759e-05 -5.00621e-05 6.3692e-05
0.0147 0 -3.93759e-05 -5.00621e-05 6.3692e-05
0.0148 0 -4.13865e-05 -5.18678e-05 6.6356e-05
0.0148 0 -4.13865e-05 -5.18678e-05 6.6356e-05
0.0149 0 -4.33756e-05 -5.34903e-05 6.8867e-05
0.0149 0 -4.33756e-05 -5.34903e-05 6.8867e-05
0.015 0 -4.53398e-05 -5.49039e-05 7.12048e-05
0.015 0 -4.53398e-05 -5.49039e-05 7.12048e-05
0.0151 0 -4.72763e-05 -5.60839e-05 7.33516e-05
0.0151 0 -4.72763e-05 -5.60839e-05 7.33516e-05
0.0152 0 -4.9183e-05 -5.70078e-05 7.52918e-05
0.0152 0 -4.9183e-05 -5.70078e-05 7.52918e-05
0.0153 0 -5.10581e-05 -5.76544e-05 7.70127e-05
0.0153 0 -5.10581e-05 -5.76544e-05 7.70127e-05
0.0154 0 -5.29001e-05 -5.80052e-05 7.85049e-05
0.0154 0 -5.29001e-05 -5.80052e-05 7.85049e-05
0.0155 0 -5.47076e-05 -5.80438e-05 7.97621e-05
0.0155 0 -5.47076e-05 -5.80438e-05 7.97621e-05
0.0156 0 -5.64789e-05 -5.77565e-05 8.07816e-05
0.0156 0 -5.64789e-05 -5.77565e-05 8.07816e-05
0.0157 0 -5.82122e-05 -5.71324e-05 8.15645e-05
0.0157 0 -5.82122e-05 -5.71324e-05 8.15645e-05
0.0158 0 -5.99053e-05 -5.61637e-05 8.21158e-05
0.0158 0 -5.99053e-05 -5.61637e-05 8.21158e-05
0.0159 0 -6.15555e-05 -5.48453e-05 8.24445e-05
0.0159 0 -6.15555e-05 -5.48453e-05 8.24445e-05
0.016 0 -6.31594e-05 -5.31757e-05 8.25637e-05
0.016 0 -6.31594e-05 -5.31757e-05 8.25637e-05
0.0161 0 -6.47126e-05 -5.11563e-05 8.24905e-05
0.0161 0 -6.47126e-05 -5.11563e-05 8.24905e-05
0.0162 0 -6.621e-05 -4.87917e-05 8.22459e-05
0.0162 0 -6.621e-05 -4.87917e-05 8.22459e-05
0.0163 0 -6.76451e-05 -4.60898e-05 8.18544e-05
0.0163 0 -6.76451e-05 -4.60898e-05 8.18544e-05
0.0164 0 -6.90109e-05 -4.30618e-05 8.13438e-05
0.0164 0 -6.90109e-05 -4.30618e-05 8.13438e-05
0.0165 0 -7.02992e-05 -3.97219e-05 8.07453e-05
0.0165 0 -7.02992e-05 -3.97219e-05 8.07453e-05
0.0166 0 -7.1502e-05 -3.60878e-05 8.00928e-05
0.0166 0 -7.1502e-05 -3.60878e-05 8.00928e-05
0.0167 0 -7.26111e-05 -3.21803e-05 7.94226e-05
0.0167 0 -7.26111e-05 -3.21803e-05 7.94226e-05
0.0168 0 -7.36195e-05 -2.80234e-05 7.87727e-05
0.0168 0 -7.36195e-05 -2.80234e-05 7.87727e-05
0.0169 0 -7.45203e-05 -2.36431e-05 7.8181e-05
0.0169 0 -7.45203e-05 -2.36431e-05 7.8181e-05
0.017 0 -7.53071e-05 -1.90671e-05 7.76834e-05
0.017 0 -7.53071e-05 -1.90671e-05 7.76834e-05
0.0171 0 -7.5973e-05 -1.43245e-05 7.73117e-05
0.0171 0 -7.5973e-05 -1.43245e-05 7.73117e-05
0.0172 0 -7.65104e-05 -9.44549e-06 7.70913e-05
0.0172 0 -7.65104e-05 -9.44549e-06 7.70913e-05
0.0173 0 -7.69101e-05 -4.46139e-06 7.70394e-05
0.0173 0 -7.69101e-05 -4.46139e-06 7.70394e-05
0.0174 0 -7.71613e-05 5.95595e-07 7.71636e-05
0.0174 0 -7.71613e-05 5.95595e-07 7.71636e-05
0.0175 0 -7.72508e-05 5.69187e-06 7.74602e-05
0.0175 0 -7.72508e-05 5.69187e-06 7.74602e-05
0.0176 0 -7.7164e-05 1.07932e-05 7.79152e-05
0.0176 0 -7.7164e-05 1.07932e-05 7.79152e-05
0.0177 0 -7.68879e-05 1.58637e-05 7.85074e-05
0.0177 0 -7.68879e-05 1.58637e-05 7.85074e-05
0.0178 0 -7.64098e-05 2.08672e-05 7.92079e-05
0.0178 0 -7.64098e-05 2.08672e-05 7.92079e-05
0.0179 0 -7.57197e-05 2.57671e-05 7.99838e-05
0.0179 0 -7.57197e-05 2.57671e-05 7.99838e-05
0.018 0 -7.48119e-05 3.05281e-05 8.08009e-05
0.018 0 -7.48119e-05 3.05281e-05 8.08009e-05
0.0181 0 -7.36811e-05 3.51161e-05 8.16214e-05
0.0181 0 -7.36811e-05 3.51161e-05 8.16214e-05
0.0182 0 -7.23239e-05 3.9499e-05 8.2407e-05
0.0182 0 -7.23239e-05 3.9499e-05 8.2407e-05
0.0183 0 -7.07377e-05 4.36464e-05 8.31194e-05
0.0183 0 -7.07377e-05 4.36464e-05 8.31194e-05
0.0184 0 -6.89217e-05 4.75302e-05 8.37217e-05
0.0184 0 -6.89217e-05 4.75302e-05 8.37217e-05
0.0185 0 -6.68766e-05 5.11242e-05 8.41793e-05
0.0185 0 -6.68766e-05 5.11242e-05 8.41793e-05
0.0186 0 -6.46045e-05 5.44047e-05 8.44607e-05
0.0186 0 -6.46045e-05 5.44047e-05 8.44607e-05
0.0187 0 -6.21095e-05 5.73506e-05 8.45381e-05
0.0187 0 -6.21095e-05 5.73506e-05 8.45381e-05
0.0188 0 -5.93976e-05 5.99438e-05 8.4388e-05
0.0188 0 -5.93976e-05 5.99438e-05 8.4388e-05
0.0189 0 -5.64763e-05 6.21687e-05 8.39912e-05
0.0189 0 -5.64763e-05 6.21687e-05 8.39912e-05
0.019 0 -5.33552e-05 6.40133e-05 8.33336e-05
0.019 0 -5.33552e-05 6.40133e-05 8.33336e-05
0.0191 0 -5.00458e-05 6.54683e-05 8.24056e-05
0.0191 0 -5.00458e-05 6.54683e-05 8.24056e-05
0.0192 0 -4.65611e-05 6.65279e-05 8.12028e-05
0.0192 0 -4.65611e-05 6.65279e-05 8.12028e-05
0.0193 0 -4.2916e-05 6.71895e-05 7.97258e-05
0.0193 0 -4.2916e-05 6.71895e-05 7.97258e-05
0.0194 0 -3.91271e-05 6.74536e-05 7.79802e-05
0.0194 0 -3.91271e-05 6.74536e-05 7.79802e-05
0.0195 0 -3.52124e-05 6.73241e-05 7.59767e-05
0.0195 0 -3.52124e-05 6.73241e-05 7.59767e-05
0.0196 0 -3.11917e-05 6.68082e-05 7.3731e-05
0.0196 0 -3.11917e-05 6.68082e-05 7.3731e-05
0.0197 0 -2.70856e-05 6.59161e-05 7.1264e-05
0.0197 0 -2.70856e-05 6.59161e-05 7.1264e-05
0.0198 0 -2.29158e-05 6.46611e-05 6.86017e-05
0.0198 0 -2.29158e-05 6.46611e-05 6.86017e-05
0.0199 0 -1.87053e-05 6.30594e-05 6.57752e-05
0.0199 0 -1.87053e-05 6.30594e-05 6.57752e-05
0.02 0 -1.44769e-05 6.113e-05 6.28209e-05
0.02 0 -1.44769e-05 6.113e-05 6.28209e-05
