# Time forceX forceY forceZ normalForce
2.5e-05 0.00307623 0.00307623 5.80555e-06 -0.00483688
2.5e-05 0.00307623 0.00307623 5.80555e-06 -0.00483688
5e-05 0.00592483 0.00592483 1.12528e-05 -0.00931254
5e-05 0.00592483 0.00592483 1.12528e-05 -0.00931254
7.5e-05 0.00850427 0.00850427 1.67961e-05 -0.0133642
7.5e-05 0.00850427 0.00850427 1.67961e-05 -0.0133642
0.0001 0.0107016 0.0107016 2.25116e-05 -0.0168153
0.0001 0.0107016 0.0107016 2.25116e-05 -0.0168153
0.000125 0.012438 0.012438 2.83111e-05 -0.0195424
0.000125 0.012438 0.012438 2.83111e-05 -0.0195424
0.00015 0.0137088 0.0137088 3.40698e-05 -0.0215381
0.00015 0.0137088 0.0137088 3.40698e-05 -0.0215381
0.000175 0.0145666 0.0145666 3.9703e-05 -0.0228853
0.000175 0.0145666 0.0145666 3.9703e-05 -0.0228853
0.0002 0.0150913 0.0150913 4.51972e-05 -0.0237093
0.0002 0.0150913 0.0150913 4.51972e-05 -0.0237093
0.000225 0.015367 0.015367 5.06016e-05 -0.0241421
0.000225 0.015367 0.015367 5.06016e-05 -0.0241421
0.00025 0.0154722 0.0154722 5.59964e-05 -0.0243071
0.00025 0.0154722 0.0154722 5.59964e-05 -0.0243071
0.000275 0.0154788 0.0154788 6.14576e-05 -0.0243169
0.000275 0.0154788 0.0154788 6.14576e-05 -0.0243169
0.0003 0.0154513 0.0154513 6.70324e-05 -0.0242731
0.0003 0.0154513 0.0154513 6.70324e-05 -0.0242731
0.000325 0.0154469 0.0154469 7.2731e-05 -0.0242654
0.000325 0.0154469 0.0154469 7.2731e-05 -0.0242654
0.00035 0.0155135 0.0155135 7.85326e-05 -0.0243692
0.00035 0.0155135 0.0155135 7.85326e-05 -0.0243692
0.000375 0.0156866 0.0156866 8.44004e-05 -0.0246401
0.000375 0.0156866 0.0156866 8.44004e-05 -0.0246401
0.0004 0.0159868 0.0159868 9.02965e-05 -0.0251108
0.0004 0.0159868 0.0159868 9.02965e-05 -0.0251108
0.000425 0.0164206 0.0164206 9.61936e-05 -0.0257913
0.000425 0.0164206 0.0164206 9.61936e-05 -0.0257913
0.00045 0.0169816 0.0169816 0.00010208 -0.0266718
0.00045 0.0169816 0.0169816 0.00010208 -0.0266718
0.000475 0.0176534 0.0176534 0.000107959 -0.0277264
0.000475 0.0176534 0.0176534 0.000107959 -0.0277264
0.0005 0.018414 0.0184141 0.000113844 -0.0289207
0.0005 0.018414 0.0184141 0.000113844 -0.0289207
0.000525 0.0192395 0.0192395 0.000119752 -0.030217
0.000525 0.0192395 0.0192395 0.000119752 -0.030217
0.00055 0.0201052 0.0201052 0.0001257 -0.0315766
0.00055 0.0201052 0.0201052 0.0001257 -0.0315766
0.000575 0.0209891 0.0209891 0.0001317 -0.0329649
0.000575 0.0209891 0.0209891 0.0001317 -0.0329649
0.0006 0.0218746 0.0218746 0.000137757 -0.0343558
0.0006 0.0218746 0.0218746 0.000137757 -0.0343558
0.000625 0.0227449 0.0227449 0.00014387 -0.0357228
0.000625 0.0227449 0.0227449 0.00014387 -0.0357228
0.00065 0.0235909 0.0235908 0.000150037 -0.0370516
0.00065 0.0235909 0.0235908 0.000150037 -0.0370516
0.000675 0.0244052 0.0244052 0.000156249 -0.0383308
0.000675 0.0244052 0.0244052 0.000156249 -0.0383308
0.0007 0.0251848 0.0251847 0.000162501 -0.0395551
0.0007 0.0251848 0.0251847 0.000162501 -0.0395551
0.000725 0.0259286 0.0259285 0.000168786 -0.0407232
0.000725 0.0259286 0.0259285 0.000168786 -0.0407232
0.00075 0.0266408 0.0266407 0.000175098 -0.0418418
0.00075 0.0266408 0.0266407 0.000175098 -0.0418418
0.000775 0.0273251 0.0273252 0.000181434 -0.0429164
0.000775 0.0273251 0.0273252 0.000181434 -0.0429164
0.0008 0.0279894 0.0279894 0.00018779 -0.0439595
0.0008 0.0279894 0.0279894 0.00018779 -0.0439595
0.000825 0.0286431 0.0286431 0.000194166 -0.0449859
0.000825 0.0286431 0.0286431 0.000194166 -0.0449859
0.00085 0.0292956 0.0292956 0.00020056 -0.0460103
0.00085 0.0292956 0.0292956 0.00020056 -0.0460103
0.000875 0.0299554 0.0299554 0.000206971 -0.0470463
0.000875 0.0299554 0.0299554 0.000206971 -0.0470463
0.0009 0.0306313 0.0306314 0.000213399 -0.0481074
0.0009 0.0306313 0.0306314 0.000213399 -0.0481074
0.000925 0.0313327 0.0313328 0.000219842 -0.0492087
0.000925 0.0313327 0.0313328 0.000219842 -0.0492087
0.00095 0.0320634 0.0320634 0.000226298 -0.0503558
0.00095 0.0320634 0.0320634 0.000226298 -0.0503558
0.000975 0.0328252 0.0328254 0.000232767 -0.0515521
0.000975 0.0328252 0.0328254 0.000232767 -0.0515521
0.001 0.0336198 0.0336198 0.000239247 -0.0527996
0.001 0.0336198 0.0336198 0.000239247 -0.0527996
0.001025 0.0344456 0.0344455 0.000245736 -0.054096
0.001025 0.0344456 0.0344455 0.000245736 -0.054096
0.00105 0.0352979 0.0352982 0.000252232 -0.0554347
0.00105 0.0352979 0.0352982 0.000252232 -0.0554347
0.001075 0.0361746 0.0361743 0.000258734 -0.0568109
0.001075 0.0361746 0.0361743 0.000258734 -0.0568109
0.0011 0.0370684 0.0370683 0.000265239 -0.0582145
0.0011 0.0370684 0.0370683 0.000265239 -0.0582145
0.001125 0.0379713 0.0379714 0.000271747 -0.0596324
0.001125 0.0379713 0.0379714 0.000271747 -0.0596324
0.00115 0.0388811 0.038881 0.000278257 -0.0610609
0.00115 0.0388811 0.038881 0.000278257 -0.0610609
0.001175 0.039792 0.0397921 0.000284767 -0.0624915
0.001175 0.039792 0.0397921 0.000284767 -0.0624915
0.0012 0.0406964 0.0406965 0.000291277 -0.0639117
0.0012 0.0406964 0.0406965 0.000291277 -0.0639117
0.001225 0.0415946 0.0415945 0.000297786 -0.0653219
0.001225 0.0415946 0.0415945 0.000297786 -0.0653219
0.00125 0.042484 0.0424841 0.000304295 -0.0667187
0.00125 0.042484 0.0424841 0.000304295 -0.0667187
0.001275 0.0433629 0.043363 0.000310803 -0.0680987
0.001275 0.0433629 0.043363 0.000310803 -0.0680987
0.0013 0.0442338 0.0442337 0.000317311 -0.069466
0.0013 0.0442338 0.0442337 0.000317311 -0.069466
0.001325 0.0450976 0.0450976 0.000323817 -0.0708224
0.001325 0.0450976 0.0450976 0.000323817 -0.0708224
0.00135 0.0459573 0.0459573 0.000330321 -0.0721724
0.00135 0.0459573 0.0459573 0.000330321 -0.0721724
0.001375 0.0468163 0.0468163 0.000336824 -0.0735212
0.001375 0.0468163 0.0468163 0.000336824 -0.0735212
0.0014 0.0476785 0.0476784 0.000343324 -0.074875
0.0014 0.0476785 0.0476784 0.000343324 -0.074875
0.001425 0.0485466 0.0485467 0.000349821 -0.0762383
0.001425 0.0485466 0.0485467 0.000349821 -0.0762383
0.00145 0.0494198 0.0494198 0.000356314 -0.0776092
0.00145 0.0494198 0.0494198 0.000356314 -0.0776092
0.001475 0.0503001 0.0503001 0.000362803 -0.0789914
0.001475 0.0503001 0.0503001 0.000362803 -0.0789914
0.0015 0.0511912 0.0511912 0.000369288 -0.0803906
0.0015 0.0511912 0.0511912 0.000369288 -0.0803906
0.001525 0.0520906 0.0520906 0.000375767 -0.0818028
0.001525 0.0520906 0.0520906 0.000375767 -0.0818028
0.00155 0.0529992 0.0529991 0.000382239 -0.0832292
0.00155 0.0529992 0.0529991 0.000382239 -0.0832292
0.001575 0.0539186 0.0539186 0.000388704 -0.0846729
0.001575 0.0539186 0.0539186 0.000388704 -0.0846729
0.0016 0.0548427 0.0548424 0.000395161 -0.0861234
0.0016 0.0548427 0.0548424 0.000395161 -0.0861234
0.001625 0.0557735 0.0557738 0.00040161 -0.0875855
0.001625 0.0557735 0.0557738 0.00040161 -0.0875855
0.00165 0.0567119 0.056712 0.000408049 -0.0890589
0.00165 0.0567119 0.056712 0.000408049 -0.0890589
0.001675 0.0576545 0.0576544 0.000414479 -0.0905388
0.001675 0.0576545 0.0576544 0.000414479 -0.0905388
0.0017 0.0585949 0.0585948 0.000420898 -0.0920155
0.0017 0.0585949 0.0585948 0.000420898 -0.0920155
0.001725 0.059536 0.0595361 0.000427307 -0.0934935
0.001725 0.059536 0.0595361 0.000427307 -0.0934935
0.00175 0.0604774 0.0604774 0.000433704 -0.0949717
0.00175 0.0604774 0.0604774 0.000433704 -0.0949717
0.001775 0.0614153 0.0614152 0.00044009 -0.0964444
0.001775 0.0614153 0.0614152 0.00044009 -0.0964444
0.0018 0.0623507 0.0623508 0.000446464 -0.0979135
0.0018 0.0623507 0.0623508 0.000446464 -0.0979135
0.001825 0.063283 0.063283 0.000452826 -0.0993774
0.001825 0.063283 0.063283 0.000452826 -0.0993774
0.00185 0.0642117 0.0642115 0.000459175 -0.100835
0.00185 0.0642117 0.0642115 0.000459175 -0.100835
0.001875 0.0651394 0.0651397 0.000465512 -0.102292
0.001875 0.0651394 0.0651397 0.000465512 -0.102292
0.0019 0.0660616 0.0660616 0.000471835 -0.10374
0.0019 0.0660616 0.0660616 0.000471835 -0.10374
0.001925 0.0669867 0.0669865 0.000478146 -0.105192
0.001925 0.0669867 0.0669865 0.000478146 -0.105192
0.00195 0.0679095 0.0679094 0.000484443 -0.106641
0.00195 0.0679095 0.0679094 0.000484443 -0.106641
0.001975 0.0688369 0.068837 0.000490727 -0.108097
0.001975 0.0688369 0.068837 0.000490727 -0.108097
0.002 0.0697695 0.0697695 0.000496997 -0.109562
0.002 0.0697695 0.0697695 0.000496997 -0.109562
0.002025 0.0707007 0.0707007 0.000503254 -0.111024
0.002025 0.0707007 0.0707007 0.000503254 -0.111024
0.00205 0.0716403 0.0716402 0.000509497 -0.112499
0.00205 0.0716403 0.0716402 0.000509497 -0.112499
0.002075 0.0725757 0.0725755 0.000515727 -0.113968
0.002075 0.0725757 0.0725755 0.000515727 -0.113968
0.0021 0.0735157 0.0735158 0.000521942 -0.115444
0.0021 0.0735157 0.0735158 0.000521942 -0.115444
0.002125 0.0744524 0.0744525 0.000528144 -0.116915
0.002125 0.0744524 0.0744525 0.000528144 -0.116915
0.00215 0.0753946 0.0753945 0.000534333 -0.118394
0.00215 0.0753946 0.0753945 0.000534333 -0.118394
0.002175 0.0763382 0.0763383 0.000540507 -0.119876
0.002175 0.0763382 0.0763383 0.000540507 -0.119876
0.0022 0.0772818 0.0772819 0.000546667 -0.121357
0.0022 0.0772818 0.0772819 0.000546667 -0.121357
0.002225 0.0782221 0.0782221 0.000552812 -0.122834
0.002225 0.0782221 0.0782221 0.000552812 -0.122834
0.00225 0.0791636 0.0791636 0.000558944 -0.124312
0.00225 0.0791636 0.0791636 0.000558944 -0.124312
0.002275 0.0801099 0.08011 0.00056506 -0.125798
0.002275 0.0801099 0.08011 0.00056506 -0.125798
0.0023 0.0810525 0.0810524 0.000571162 -0.127278
0.0023 0.0810525 0.0810524 0.000571162 -0.127278
0.002325 0.0819892 0.0819892 0.000577248 -0.128749
0.002325 0.0819892 0.0819892 0.000577248 -0.128749
0.00235 0.0829168 0.082917 0.000583318 -0.130206
0.00235 0.0829168 0.082917 0.000583318 -0.130206
0.002375 0.0838506 0.0838508 0.000589373 -0.131672
0.002375 0.0838506 0.0838508 0.000589373 -0.131672
0.0024 0.084789 0.084789 0.000595411 -0.133145
0.0024 0.084789 0.084789 0.000595411 -0.133145
0.002425 0.0857244 0.0857243 0.000601432 -0.134614
0.002425 0.0857244 0.0857243 0.000601432 -0.134614
0.00245 0.0866515 0.0866516 0.000607435 -0.13607
0.00245 0.0866515 0.0866516 0.000607435 -0.13607
0.002475 0.0875783 0.0875782 0.00061342 -0.137525
0.002475 0.0875783 0.0875782 0.00061342 -0.137525
0.0025 0.0885076 0.0885076 0.000619385 -0.138984
0.0025 0.0885076 0.0885076 0.000619385 -0.138984
0.002525 0.0894423 0.0894424 0.000625331 -0.140452
0.002525 0.0894423 0.0894424 0.000625331 -0.140452
0.00255 0.0903771 0.0903767 0.000631254 -0.141919
0.00255 0.0903771 0.0903767 0.000631254 -0.141919
0.002575 0.0913023 0.0913022 0.000637156 -0.143372
0.002575 0.0913023 0.0913022 0.000637156 -0.143372
0.0026 0.0922271 0.0922271 0.000643033 -0.144825
0.0026 0.0922271 0.0922271 0.000643033 -0.144825
0.002625 0.0931517 0.0931516 0.000648884 -0.146276
0.002625 0.0931517 0.0931516 0.000648884 -0.146276
0.00265 0.0940851 0.0940851 0.000654708 -0.147742
0.00265 0.0940851 0.0940851 0.000654708 -0.147742
0.002675 0.0950183 0.0950183 0.000660502 -0.149207
0.002675 0.0950183 0.0950183 0.000660502 -0.149207
0.0027 0.0959455 0.0959455 0.000666264 -0.150663
0.0027 0.0959455 0.0959455 0.000666264 -0.150663
0.002725 0.0968711 0.096871 0.000671991 -0.152117
0.002725 0.0968711 0.096871 0.000671991 -0.152117
0.00275 0.0977848 0.0977847 0.000677681 -0.153552
0.00275 0.0977848 0.0977847 0.000677681 -0.153552
0.002775 0.0987096 0.0987096 0.00068333 -0.155003
0.002775 0.0987096 0.0987096 0.00068333 -0.155003
0.0028 0.0996368 0.0996369 0.000688936 -0.156459
0.0028 0.0996368 0.0996369 0.000688936 -0.156459
0.002825 0.100562 0.100562 0.000694494 -0.157912
0.002825 0.100562 0.100562 0.000694494 -0.157912
0.00285 0.101479 0.10148 0.000700001 -0.159353
0.00285 0.101479 0.10148 0.000700001 -0.159353
0.002875 0.102396 0.102396 0.000705454 -0.160792
0.002875 0.102396 0.102396 0.000705454 -0.160792
0.0029 0.103299 0.103299 0.000710847 -0.162211
0.0029 0.103299 0.103299 0.000710847 -0.162211
0.002925 0.104212 0.104212 0.000716177 -0.163643
0.002925 0.104212 0.104212 0.000716177 -0.163643
0.00295 0.10513 0.105129 0.00072144 -0.165084
0.00295 0.10513 0.105129 0.00072144 -0.165084
0.002975 0.106042 0.106042 0.000726631 -0.166518
0.002975 0.106042 0.106042 0.000726631 -0.166518
0.003 0.106949 0.106949 0.000731746 -0.167942
0.003 0.106949 0.106949 0.000731746 -0.167942
0.003025 0.107113 0.107113 0.00073536 -0.168197
0.003025 0.107113 0.107113 0.00073536 -0.168197
0.00305 0.106572 0.106572 0.000737549 -0.167346
0.00305 0.106572 0.106572 0.000737549 -0.167346
0.003075 0.105405 0.105405 0.000738276 -0.165511
0.003075 0.105405 0.105405 0.000738276 -0.165511
0.0031 0.1037 0.103701 0.000737487 -0.162831
0.0031 0.1037 0.103701 0.000737487 -0.162831
0.003125 0.102294 0.102294 0.000736576 -0.160622
0.003125 0.102294 0.102294 0.000736576 -0.160622
0.00315 0.101253 0.101253 0.000735467 -0.158986
0.00315 0.101253 0.101253 0.000735467 -0.158986
0.003175 0.10061 0.100611 0.000734219 -0.157978
0.003175 0.10061 0.100611 0.000734219 -0.157978
0.0032 0.100362 0.100362 0.000732909 -0.157586
0.0032 0.100362 0.100362 0.000732909 -0.157586
0.003225 0.100487 0.100486 0.000731582 -0.157782
0.003225 0.100487 0.100486 0.000731582 -0.157782
0.00325 0.100902 0.100902 0.000730228 -0.158435
0.00325 0.100902 0.100902 0.000730228 -0.158435
0.003275 0.101528 0.101528 0.000728801 -0.159417
0.003275 0.101528 0.101528 0.000728801 -0.159417
0.0033 0.102288 0.102288 0.000727237 -0.160611
0.0033 0.102288 0.102288 0.000727237 -0.160611
0.003325 0.103136 0.103136 0.000725485 -0.161944
0.003325 0.103136 0.103136 0.000725485 -0.161944
0.00335 0.104013 0.104013 0.00072352 -0.163322
0.00335 0.104013 0.104013 0.00072352 -0.163322
0.003375 0.104848 0.104848 0.000721343 -0.164633
0.003375 0.104848 0.104848 0.000721343 -0.164633
0.0034 0.105604 0.105604 0.000718979 -0.165821
0.0034 0.105604 0.105604 0.000718979 -0.165821
0.003425 0.106253 0.106253 0.000716458 -0.166841
0.003425 0.106253 0.106253 0.000716458 -0.166841
0.00345 0.106796 0.106796 0.000713813 -0.167694
0.00345 0.106796 0.106796 0.000713813 -0.167694
0.003475 0.107218 0.107218 0.000711062 -0.168358
0.003475 0.107218 0.107218 0.000711062 -0.168358
0.0035 0.107519 0.107519 0.000708213 -0.16883
0.0035 0.107519 0.107519 0.000708213 -0.16883
0.003525 0.10772 0.10772 0.000705265 -0.169147
0.003525 0.10772 0.10772 0.000705265 -0.169147
0.00355 0.107845 0.107845 0.000702206 -0.169343
0.00355 0.107845 0.107845 0.000702206 -0.169343
0.003575 0.107903 0.107903 0.000699023 -0.169434
0.003575 0.107903 0.107903 0.000699023 -0.169434
0.0036 0.107929 0.107929 0.000695707 -0.169474
0.0036 0.107929 0.107929 0.000695707 -0.169474
0.003625 0.107936 0.107936 0.000692251 -0.169486
0.003625 0.107936 0.107936 0.000692251 -0.169486
0.00365 0.107933 0.107933 0.000688659 -0.169481
0.00365 0.107933 0.107933 0.000688659 -0.169481
0.003675 0.107935 0.107935 0.000684934 -0.169483
0.003675 0.107935 0.107935 0.000684934 -0.169483
0.0037 0.107959 0.107959 0.000681084 -0.169521
0.0037 0.107959 0.107959 0.000681084 -0.169521
0.003725 0.107998 0.107998 0.000677115 -0.169582
0.003725 0.107998 0.107998 0.000677115 -0.169582
0.00375 0.10807 0.10807 0.000673039 -0.169695
0.00375 0.10807 0.10807 0.000673039 -0.169695
0.003775 0.108179 0.108179 0.000668864 -0.169866
0.003775 0.108179 0.108179 0.000668864 -0.169866
0.0038 0.10831 0.108311 0.000664599 -0.170073
0.0038 0.10831 0.108311 0.000664599 -0.170073
0.003825 0.108468 0.108468 0.000660248 -0.17032
0.003825 0.108468 0.108468 0.000660248 -0.17032
0.00385 0.108648 0.108648 0.000655818 -0.170603
0.00385 0.108648 0.108648 0.000655818 -0.170603
0.003875 0.108828 0.108828 0.000651312 -0.170886
0.003875 0.108828 0.108828 0.000651312 -0.170886
0.0039 0.109025 0.109025 0.000646733 -0.171195
0.0039 0.109025 0.109025 0.000646733 -0.171195
0.003925 0.109222 0.109222 0.000642087 -0.171505
0.003925 0.109222 0.109222 0.000642087 -0.171505
0.00395 0.109391 0.109391 0.000637375 -0.171771
0.00395 0.109391 0.109391 0.000637375 -0.171771
0.003975 0.109547 0.109547 0.000632602 -0.172017
0.003975 0.109547 0.109547 0.000632602 -0.172017
0.004 0.10968 0.10968 0.00062777 -0.172226
0.004 0.10968 0.10968 0.00062777 -0.172226
0.004025 0.109771 0.10977 0.000622883 -0.172368
0.004025 0.109771 0.10977 0.000622883 -0.172368
0.00405 0.109837 0.109837 0.000617946 -0.172473
0.00405 0.109837 0.109837 0.000617946 -0.172473
0.004075 0.109876 0.109876 0.000612961 -0.172534
0.004075 0.109876 0.109876 0.000612961 -0.172534
0.0041 0.109873 0.109873 0.000607934 -0.172529
0.0041 0.109873 0.109873 0.000607934 -0.172529
0.004125 0.109852 0.109853 0.000602865 -0.172497
0.004125 0.109852 0.109853 0.000602865 -0.172497
0.00415 0.109813 0.109813 0.00059776 -0.172436
0.00415 0.109813 0.109813 0.00059776 -0.172436
0.004175 0.109751 0.109751 0.00059262 -0.172339
0.004175 0.109751 0.109751 0.00059262 -0.172339
0.0042 0.109686 0.109686 0.000587449 -0.172237
0.0042 0.109686 0.109686 0.000587449 -0.172237
0.004225 0.109621 0.109621 0.000582247 -0.172135
0.004225 0.109621 0.109621 0.000582247 -0.172135
0.00425 0.109552 0.109552 0.000577019 -0.172026
0.00425 0.109552 0.109552 0.000577019 -0.172026
0.004275 0.109488 0.109488 0.000571765 -0.171925
0.004275 0.109488 0.109488 0.000571765 -0.171925
0.0043 0.10944 0.10944 0.000566488 -0.17185
0.0043 0.10944 0.10944 0.000566488 -0.17185
0.004325 0.109388 0.109388 0.000561188 -0.171768
0.004325 0.109388 0.109388 0.000561188 -0.171768
0.00435 0.109353 0.109353 0.000555868 -0.171715
0.00435 0.109353 0.109353 0.000555868 -0.171715
0.004375 0.109333 0.109333 0.000550528 -0.171683
0.004375 0.109333 0.109333 0.000550528 -0.171683
0.0044 0.109309 0.10931 0.000545172 -0.171646
0.0044 0.109309 0.10931 0.000545172 -0.171646
0.004425 0.109296 0.109296 0.000539799 -0.171625
0.004425 0.109296 0.109296 0.000539799 -0.171625
0.00445 0.109285 0.109285 0.000534413 -0.171608
0.00445 0.109285 0.109285 0.000534413 -0.171608
0.004475 0.109259 0.109259 0.000529014 -0.171568
0.004475 0.109259 0.109259 0.000529014 -0.171568
0.0045 0.109238 0.109238 0.000523605 -0.171535
0.0045 0.109238 0.109238 0.000523605 -0.171535
0.004525 0.109212 0.109212 0.000518187 -0.171494
0.004525 0.109212 0.109212 0.000518187 -0.171494
0.00455 0.109167 0.109166 0.000512762 -0.171423
0.00455 0.109167 0.109166 0.000512762 -0.171423
0.004575 0.109121 0.109121 0.000507331 -0.171351
0.004575 0.109121 0.109121 0.000507331 -0.171351
0.0046 0.109065 0.109065 0.000501896 -0.171263
0.0046 0.109065 0.109065 0.000501896 -0.171263
0.004625 0.108986 0.108986 0.000496459 -0.17114
0.004625 0.108986 0.108986 0.000496459 -0.17114
0.00465 0.108906 0.108906 0.00049102 -0.171015
0.00465 0.108906 0.108906 0.00049102 -0.171015
0.004675 0.108822 0.108822 0.000485581 -0.170883
0.004675 0.108822 0.108822 0.000485581 -0.170883
0.0047 0.108726 0.108726 0.000480144 -0.170732
0.0047 0.108726 0.108726 0.000480144 -0.170732
0.004725 0.108629 0.108629 0.00047471 -0.170579
0.004725 0.108629 0.108629 0.00047471 -0.170579
0.00475 0.108532 0.108532 0.00046928 -0.170428
0.00475 0.108532 0.108532 0.00046928 -0.170428
0.004775 0.108424 0.108424 0.000463855 -0.170259
0.004775 0.108424 0.108424 0.000463855 -0.170259
0.0048 0.108322 0.108323 0.000458436 -0.170099
0.0048 0.108322 0.108323 0.000458436 -0.170099
0.004825 0.108227 0.108227 0.000453025 -0.169949
0.004825 0.108227 0.108227 0.000453025 -0.169949
0.00485 0.108122 0.108122 0.000447623 -0.169785
0.00485 0.108122 0.108122 0.000447623 -0.169785
0.004875 0.108035 0.108035 0.00044223 -0.169648
0.004875 0.108035 0.108035 0.00044223 -0.169648
0.0049 0.107953 0.107953 0.000436847 -0.169519
0.0049 0.107953 0.107953 0.000436847 -0.169519
0.004925 0.107855 0.107855 0.000431475 -0.169365
0.004925 0.107855 0.107855 0.000431475 -0.169365
0.00495 0.107768 0.107768 0.000426115 -0.169229
0.00495 0.107768 0.107768 0.000426115 -0.169229
0.004975 0.107691 0.107691 0.000420768 -0.169109
0.004975 0.107691 0.107691 0.000420768 -0.169109
0.005 0.107602 0.107602 0.000415435 -0.168969
0.005 0.107602 0.107602 0.000415435 -0.168969
0.005025 0.107522 0.107522 0.000410116 -0.168843
0.005025 0.107522 0.107522 0.000410116 -0.168843
0.00505 0.107446 0.107446 0.000404812 -0.168723
0.00505 0.107446 0.107446 0.000404812 -0.168723
0.005075 0.107354 0.107354 0.000399524 -0.168579
0.005075 0.107354 0.107354 0.000399524 -0.168579
0.0051 0.107264 0.107264 0.000394252 -0.168438
0.0051 0.107264 0.107264 0.000394252 -0.168438
0.005125 0.107178 0.107178 0.000388998 -0.168303
0.005125 0.107178 0.107178 0.000388998 -0.168303
0.00515 0.107083 0.107083 0.000383762 -0.168155
0.00515 0.107083 0.107083 0.000383762 -0.168155
0.005175 0.106989 0.106989 0.000378545 -0.168006
0.005175 0.106989 0.106989 0.000378545 -0.168006
0.0052 0.106896 0.106896 0.000373348 -0.167861
0.0052 0.106896 0.106896 0.000373348 -0.167861
0.005225 0.106791 0.106791 0.000368172 -0.167698
0.005225 0.106791 0.106791 0.000368172 -0.167698
0.00525 0.106684 0.106684 0.000363017 -0.167528
0.00525 0.106684 0.106684 0.000363017 -0.167528
0.005275 0.106588 0.106588 0.000357884 -0.167377
0.005275 0.106588 0.106588 0.000357884 -0.167377
0.0053 0.10649 0.106491 0.000352776 -0.167225
0.0053 0.10649 0.106491 0.000352776 -0.167225
0.005325 0.106391 0.106391 0.000347692 -0.167069
0.005325 0.106391 0.106391 0.000347692 -0.167069
0.00535 0.106297 0.106297 0.000342633 -0.166921
0.00535 0.106297 0.106297 0.000342633 -0.166921
0.005375 0.106208 0.106208 0.000337602 -0.166781
0.005375 0.106208 0.106208 0.000337602 -0.166781
0.0054 0.106108 0.106108 0.000332599 -0.166624
0.0054 0.106108 0.106108 0.000332599 -0.166624
0.005425 0.106009 0.106009 0.000327626 -0.166469
0.005425 0.106009 0.106009 0.000327626 -0.166469
0.00545 0.10592 0.10592 0.000322684 -0.16633
0.00545 0.10592 0.10592 0.000322684 -0.16633
0.005475 0.105826 0.105826 0.000317776 -0.166182
0.005475 0.105826 0.105826 0.000317776 -0.166182
0.0055 0.105746 0.105746 0.000312903 -0.166056
0.0055 0.105746 0.105746 0.000312903 -0.166056
0.005525 0.105659 0.105659 0.000308067 -0.16592
0.005525 0.105659 0.105659 0.000308067 -0.16592
0.00555 0.105552 0.105552 0.000303271 -0.165752
0.00555 0.105552 0.105552 0.000303271 -0.165752
0.005575 0.105463 0.105463 0.000298518 -0.165612
0.005575 0.105463 0.105463 0.000298518 -0.165612
0.0056 0.105385 0.105385 0.000293809 -0.16549
0.0056 0.105385 0.105385 0.000293809 -0.16549
0.005625 0.105297 0.105297 0.00028915 -0.165351
0.005625 0.105297 0.105297 0.00028915 -0.165351
0.00565 0.105219 0.105219 0.000284542 -0.165229
0.00565 0.105219 0.105219 0.000284542 -0.165229
0.005675 0.105134 0.105134 0.00027999 -0.165096
0.005675 0.105134 0.105134 0.00027999 -0.165096
0.0057 0.105027 0.105027 0.000275496 -0.164929
0.0057 0.105027 0.105027 0.000275496 -0.164929
0.005725 0.104935 0.104935 0.000271067 -0.164783
0.005725 0.104935 0.104935 0.000271067 -0.164783
0.00575 0.104856 0.104856 0.000266705 -0.164659
0.00575 0.104856 0.104856 0.000266705 -0.164659
0.005775 0.104767 0.104767 0.000262417 -0.164519
0.005775 0.104767 0.104767 0.000262417 -0.164519
0.0058 0.104679 0.104679 0.000258206 -0.164382
0.0058 0.104679 0.104679 0.000258206 -0.164382
0.005825 0.104597 0.104597 0.00025408 -0.164253
0.005825 0.104597 0.104597 0.00025408 -0.164253
0.00585 0.104497 0.104497 0.000250043 -0.164097
0.00585 0.104497 0.104497 0.000250043 -0.164097
0.005875 0.104403 0.104403 0.000246101 -0.163949
0.005875 0.104403 0.104403 0.000246101 -0.163949
0.0059 0.104332 0.104332 0.000242261 -0.163837
0.0059 0.104332 0.104332 0.000242261 -0.163837
0.005925 0.104247 0.104247 0.000238529 -0.163703
0.005925 0.104247 0.104247 0.000238529 -0.163703
0.00595 0.104167 0.104167 0.000234912 -0.163578
0.00595 0.104167 0.104167 0.000234912 -0.163578
0.005975 0.104081 0.104081 0.000231416 -0.163443
0.005975 0.104081 0.104081 0.000231416 -0.163443
0.006 0.103984 0.103984 0.000228048 -0.16329
0.006 0.103984 0.103984 0.000228048 -0.16329
0.006025 0.103894 0.103894 0.000224814 -0.16315
0.006025 0.103894 0.103894 0.000224814 -0.16315
0.00605 0.103825 0.103825 0.000221721 -0.16304
0.00605 0.103825 0.103825 0.000221721 -0.16304
0.006075 0.103744 0.103745 0.000218775 -0.162914
0.006075 0.103744 0.103745 0.000218775 -0.162914
0.0061 0.103672 0.103671 0.000215984 -0.162799
0.0061 0.103672 0.103671 0.000215984 -0.162799
0.006125 0.103594 0.103594 0.000213352 -0.162679
0.006125 0.103594 0.103594 0.000213352 -0.162679
0.00615 0.103506 0.103506 0.000210884 -0.16254
0.00615 0.103506 0.103506 0.000210884 -0.16254
0.006175 0.103422 0.103422 0.000208587 -0.162407
0.006175 0.103422 0.103422 0.000208587 -0.162407
0.0062 0.103356 0.103356 0.000206465 -0.162303
0.0062 0.103356 0.103356 0.000206465 -0.162303
0.006225 0.103285 0.103285 0.000204522 -0.162191
0.006225 0.103285 0.103285 0.000204522 -0.162191
0.00625 0.103213 0.103214 0.000202762 -0.162079
0.00625 0.103213 0.103214 0.000202762 -0.162079
0.006275 0.103145 0.103145 0.000201189 -0.161973
0.006275 0.103145 0.103145 0.000201189 -0.161973
0.0063 0.10306 0.10306 0.000199804 -0.161839
0.0063 0.10306 0.10306 0.000199804 -0.161839
0.006325 0.102974 0.102974 0.000198609 -0.161703
0.006325 0.102974 0.102974 0.000198609 -0.161703
0.00635 0.102903 0.102903 0.000197606 -0.161591
0.00635 0.102903 0.102903 0.000197606 -0.161591
0.006375 0.102834 0.102834 0.000196795 -0.161483
0.006375 0.102834 0.102834 0.000196795 -0.161483
0.0064 0.102763 0.102764 0.000196177 -0.161372
0.0064 0.102763 0.102764 0.000196177 -0.161372
0.006425 0.102692 0.102692 0.000195751 -0.161261
0.006425 0.102692 0.102692 0.000195751 -0.161261
0.00645 0.102611 0.102611 0.000195515 -0.161134
0.00645 0.102611 0.102611 0.000195515 -0.161134
0.006475 0.102522 0.102522 0.000195468 -0.160994
0.006475 0.102522 0.102522 0.000195468 -0.160994
0.0065 0.10245 0.10245 0.000195607 -0.160881
0.0065 0.10245 0.10245 0.000195607 -0.160881
0.006525 0.102382 0.102382 0.00019593 -0.160774
0.006525 0.102382 0.102382 0.00019593 -0.160774
0.00655 0.102313 0.102313 0.000196434 -0.160665
0.00655 0.102313 0.102313 0.000196434 -0.160665
0.006575 0.102249 0.102249 0.000197116 -0.160564
0.006575 0.102249 0.102249 0.000197116 -0.160564
0.0066 0.102167 0.102167 0.00019797 -0.160436
0.0066 0.102167 0.102167 0.00019797 -0.160436
0.006625 0.102072 0.102072 0.000198993 -0.160287
0.006625 0.102072 0.102072 0.000198993 -0.160287
0.00665 0.102003 0.102003 0.00020018 -0.160178
0.00665 0.102003 0.102003 0.00020018 -0.160178
0.006675 0.101935 0.101935 0.000201527 -0.160071
0.006675 0.101935 0.101935 0.000201527 -0.160071
0.0067 0.101856 0.101856 0.000203029 -0.159947
0.0067 0.101856 0.101856 0.000203029 -0.159947
0.006725 0.10179 0.101789 0.000204682 -0.159842
0.006725 0.10179 0.101789 0.000204682 -0.159842
0.00675 0.101711 0.101711 0.00020648 -0.159719
0.00675 0.101711 0.101711 0.00020648 -0.159719
0.006775 0.101622 0.101622 0.000208417 -0.15958
0.006775 0.101622 0.101622 0.000208417 -0.15958
0.0068 0.101543 0.101543 0.000210489 -0.159455
0.0068 0.101543 0.101543 0.000210489 -0.159455
0.006825 0.101474 0.101474 0.000212691 -0.159347
0.006825 0.101474 0.101474 0.000212691 -0.159347
0.00685 0.101392 0.101391 0.000215018 -0.159216
0.00685 0.101392 0.101391 0.000215018 -0.159216
0.006875 0.101311 0.101311 0.000217464 -0.15909
0.006875 0.101311 0.101311 0.000217464 -0.15909
0.0069 0.101231 0.101231 0.000220026 -0.158963
0.0069 0.101231 0.101231 0.000220026 -0.158963
0.006925 0.101142 0.101142 0.000222697 -0.158825
0.006925 0.101142 0.101142 0.000222697 -0.158825
0.00695 0.101052 0.101052 0.000225474 -0.158683
0.00695 0.101052 0.101052 0.000225474 -0.158683
0.006975 0.100981 0.100981 0.00022835 -0.158572
0.006975 0.100981 0.100981 0.00022835 -0.158572
0.007 0.100889 0.100889 0.000231323 -0.158426
0.007 0.100889 0.100889 0.000231323 -0.158426
0.007025 0.100804 0.100804 0.000234387 -0.158293
0.007025 0.100804 0.100804 0.000234387 -0.158293
0.00705 0.100722 0.100722 0.000237538 -0.158164
0.00705 0.100722 0.100722 0.000237538 -0.158164
0.007075 0.100631 0.100631 0.000240772 -0.158022
0.007075 0.100631 0.100631 0.000240772 -0.158022
0.0071 0.100539 0.100539 0.000244085 -0.157877
0.0071 0.100539 0.100539 0.000244085 -0.157877
0.007125 0.100462 0.100462 0.000247472 -0.157756
0.007125 0.100462 0.100462 0.000247472 -0.157756
0.00715 0.100361 0.10036 0.00025093 -0.157596
0.00715 0.100361 0.10036 0.00025093 -0.157596
0.007175 0.100265 0.100265 0.000254455 -0.157445
0.007175 0.100265 0.100265 0.000254455 -0.157445
0.0072 0.100177 0.100178 0.000258044 -0.157309
0.0072 0.100177 0.100178 0.000258044 -0.157309
0.007225 0.100083 0.100083 0.000261692 -0.15716
0.007225 0.100083 0.100083 0.000261692 -0.15716
0.00725 0.0999864 0.0999865 0.000265396 -0.157009
0.00725 0.0999864 0.0999865 0.000265396 -0.157009
0.007275 0.0999004 0.0999006 0.000269153 -0.156874
0.007275 0.0999004 0.0999006 0.000269153 -0.156874
0.0073 0.0997887 0.0997887 0.00027296 -0.156698
0.0073 0.0997887 0.0997887 0.00027296 -0.156698
0.007325 0.0996823 0.0996824 0.000276813 -0.15653
0.007325 0.0996823 0.0996824 0.000276813 -0.15653
0.00735 0.0995827 0.0995828 0.000280711 -0.156374
0.00735 0.0995827 0.0995828 0.000280711 -0.156374
0.007375 0.0994796 0.0994795 0.000284648 -0.156212
0.007375 0.0994796 0.0994795 0.000284648 -0.156212
0.0074 0.0993801 0.09938 0.000288623 -0.156056
0.0074 0.0993801 0.09938 0.000288623 -0.156056
0.007425 0.0992775 0.0992774 0.000292633 -0.155895
0.007425 0.0992775 0.0992774 0.000292633 -0.155895
0.00745 0.0991568 0.0991568 0.000296674 -0.155705
0.00745 0.0991568 0.0991568 0.000296674 -0.155705
0.007475 0.0990364 0.0990363 0.000300746 -0.155516
0.007475 0.0990364 0.0990363 0.000300746 -0.155516
0.0075 0.098921 0.0989211 0.000304845 -0.155334
0.0075 0.098921 0.0989211 0.000304845 -0.155334
0.007525 0.0988094 0.0988095 0.000308969 -0.15516
0.007525 0.0988094 0.0988095 0.000308969 -0.15516
0.00755 0.0987076 0.0987077 0.000313116 -0.154999
0.00755 0.0987076 0.0987077 0.000313116 -0.154999
0.007575 0.0985904 0.0985905 0.000317282 -0.154816
0.007575 0.0985904 0.0985905 0.000317282 -0.154816
0.0076 0.0984511 0.0984516 0.000321467 -0.154597
0.0076 0.0984511 0.0984516 0.000321467 -0.154597
0.007625 0.0983242 0.0983242 0.000325668 -0.154397
0.007625 0.0983242 0.0983242 0.000325668 -0.154397
0.00765 0.0981889 0.0981889 0.000329884 -0.154184