# Time Dx Dy Dz magD
0.0002 0 7.52757e-10 -1.05314e-09 1.29451e-09
0.0002 0 7.52757e-10 -1.05314e-09 1.29451e-09
0.0004 0 2.48756e-09 -6.84408e-09 7.28213e-09
0.0004 0 2.48756e-09 -6.84408e-09 7.28213e-09
0.0006 0 6.45057e-09 -2.76942e-08 2.84355e-08
0.0006 0 6.45057e-09 -2.76942e-08 2.84355e-08
0.0008 0 1.5315e-08 -9.35538e-08 9.47991e-08
0.0008 0 1.5315e-08 -9.35538e-08 9.47991e-08
0.001 0 3.31389e-08 -2.78688e-07 2.80652e-07
0.001 0 3.31389e-08 -2.78688e-07 2.80652e-07
0.0012 0 6.54807e-08 -7.33733e-07 7.36649e-07
0.0012 0 6.54807e-08 -7.33733e-07 7.36649e-07
0.0014 0 1.20133e-07 -1.70059e-06 1.70483e-06
0.0014 0 1.20133e-07 -1.70059e-06 1.70483e-06
0.0016 0 2.07196e-07 -3.4669e-06 3.47309e-06
0.0016 0 2.07196e-07 -3.4669e-06 3.47309e-06
0.0018 0 3.3877e-07 -6.23797e-06 6.24716e-06
0.0018 0 3.3877e-07 -6.23797e-06 6.24716e-06
0.002 0 5.30948e-07 -9.98694e-06 1.0001e-05
0.002 0 5.30948e-07 -9.98694e-06 1.0001e-05
0.0022 0 8.08231e-07 -1.44288e-05 1.44514e-05
0.0022 0 8.08231e-07 -1.44288e-05 1.44514e-05
0.0024 0 1.20604e-06 -1.92157e-05 1.92535e-05
0.0024 0 1.20604e-06 -1.92157e-05 1.92535e-05
0.0026 0 1.76749e-06 -2.4229e-05 2.42933e-05
0.0026 0 1.76749e-06 -2.4229e-05 2.42933e-05
0.0028 0 2.53684e-06 -2.96583e-05 2.97666e-05
0.0028 0 2.53684e-06 -2.96583e-05 2.97666e-05
0.003 0 3.55859e-06 -3.571e-05 3.58869e-05
0.003 0 3.55859e-06 -3.571e-05 3.58869e-05
0.0032 0 4.88595e-06 -4.22243e-05 4.25061e-05
0.0032 0 4.88595e-06 -4.22243e-05 4.25061e-05
0.0034 0 6.5911e-06 -4.86806e-05 4.91247e-05
0.0034 0 6.5911e-06 -4.86806e-05 4.91247e-05
0.0036 0 8.76933e-06 -5.46505e-05 5.53496e-05
0.0036 0 8.76933e-06 -5.46505e-05 5.53496e-05
0.0038 0 1.15385e-05 -6.01543e-05 6.12509e-05
0.0038 0 1.15385e-05 -6.01543e-05 6.12509e-05
0.004 0 1.50372e-05 -6.54152e-05 6.71213e-05
0.004 0 1.50372e-05 -6.54152e-05 6.71213e-05
0.0042 0 1.94077e-05 -7.0272e-05 7.29027e-05
0.0042 0 1.94077e-05 -7.0272e-05 7.29027e-05
0.0044 0 2.47432e-05 -7.40003e-05 7.80274e-05
0.0044 0 2.47432e-05 -7.40003e-05 7.80274e-05
0.0046 0 3.10148e-05 -7.58059e-05 8.19052e-05
0.0046 0 3.10148e-05 -7.58059e-05 8.19052e-05
0.0048 0 3.80464e-05 -7.54163e-05 8.44698e-05
0.0048 0 3.80464e-05 -7.54163e-05 8.44698e-05
0.005 0 4.56012e-05 -7.31397e-05 8.6191e-05
0.005 0 4.56012e-05 -7.31397e-05 8.6191e-05
0.0052 0 5.35479e-05 -6.94608e-05 8.77051e-05
0.0052 0 5.35479e-05 -6.94608e-05 8.77051e-05
0.0054 0 6.19725e-05 -6.46755e-05 8.95741e-05
0.0054 0 6.19725e-05 -6.46755e-05 8.95741e-05
0.0056 0 7.11177e-05 -5.87832e-05 9.2267e-05
0.0056 0 7.11177e-05 -5.87832e-05 9.2267e-05
0.0058 0 8.11686e-05 -5.1541e-05 9.615e-05
0.0058 0 8.11686e-05 -5.1541e-05 9.615e-05
0.006 0 9.20309e-05 -4.26779e-05 0.000101445
0.006 0 9.20309e-05 -4.26779e-05 0.000101445
0.0062 0 0.000103245 -3.2278e-05 0.000108173
0.0062 0 0.000103245 -3.2278e-05 0.000108173
0.0064 0 0.000114068 -2.09691e-05 0.00011598
0.0064 0 0.000114068 -2.09691e-05 0.00011598
0.0066 0 0.00012365 -9.492e-06 0.000124013
0.0066 0 0.00012365 -9.492e-06 0.000124013
0.0068 0 0.000131202 2.00547e-06 0.000131217
0.0068 0 0.000131202 2.00547e-06 0.000131217
0.007 0 0.000136098 1.39842e-05 0.000136815
0.007 0 0.000136098 1.39842e-05 0.000136815
0.0072 0 0.000137904 2.65817e-05 0.000140443
0.0072 0 0.000137904 2.65817e-05 0.000140443
0.0074 0 0.000136351 3.88306e-05 0.000141772
0.0074 0 0.000136351 3.88306e-05 0.000141772
0.0076 0 0.000131261 4.91748e-05 0.00014017
0.0076 0 0.000131261 4.91748e-05 0.00014017
0.0078 0 0.000122778 5.68918e-05 0.000135318
0.0078 0 0.000122778 5.68918e-05 0.000135318
0.008 0 0.000111507 6.27909e-05 0.000127971
0.008 0 0.000111507 6.27909e-05 0.000127971
0.0082 0 9.83303e-05 6.82035e-05 0.000119669
0.0082 0 9.83303e-05 6.82035e-05 0.000119669
0.0084 0 8.39966e-05 7.32764e-05 0.000111467
0.0084 0 8.39966e-05 7.32764e-05 0.000111467
0.0086 0 6.88873e-05 7.65789e-05 0.000103004
0.0086 0 6.88873e-05 7.65789e-05 0.000103004
0.0088 0 5.3145e-05 7.66399e-05 9.32634e-05
0.0088 0 5.3145e-05 7.66399e-05 9.32634e-05
0.009 0 3.6981e-05 7.37799e-05 8.25292e-05
0.009 0 3.6981e-05 7.37799e-05 8.25292e-05
0.0092 0 2.08522e-05 7.00945e-05 7.31304e-05
0.0092 0 2.08522e-05 7.00945e-05 7.31304e-05
0.0094 0 5.40466e-06 6.73839e-05 6.76003e-05
0.0094 0 5.40466e-06 6.73839e-05 6.76003e-05
0.0096 0 -8.68281e-06 6.51979e-05 6.57735e-05
0.0096 0 -8.68281e-06 6.51979e-05 6.57735e-05
0.0098 0 -2.08316e-05 6.12921e-05 6.47355e-05
0.0098 0 -2.08316e-05 6.12921e-05 6.47355e-05
0.01 0 -3.06426e-05 5.42551e-05 6.23104e-05
0.01 0 -3.06426e-05 5.42551e-05 6.23104e-05
0.0102 0 -3.79662e-05 4.54831e-05 5.92465e-05
0.0102 0 -3.79662e-05 4.54831e-05 5.92465e-05
0.0104 0 -4.28956e-05 3.81136e-05 5.73819e-05
0.0104 0 -4.28956e-05 3.81136e-05 5.73819e-05
0.0106 0 -4.56212e-05 3.38334e-05 5.67979e-05
0.0106 0 -4.56212e-05 3.38334e-05 5.67979e-05
0.0108 0 -4.6215e-05 3.10506e-05 5.56773e-05
0.0108 0 -4.6215e-05 3.10506e-05 5.56773e-05
0.011 0 -4.46208e-05 2.66244e-05 5.19603e-05
0.011 0 -4.46208e-05 2.66244e-05 5.19603e-05
0.0112 0 -4.0958e-05 1.93821e-05 4.53125e-05
0.0112 0 -4.0958e-05 1.93821e-05 4.53125e-05
0.0114 0 -3.57254e-05 1.15769e-05 3.75543e-05
0.0114 0 -3.57254e-05 1.15769e-05 3.75543e-05
0.0116 0 -2.96736e-05 6.65889e-06 3.04115e-05
0.0116 0 -2.96736e-05 6.65889e-06 3.04115e-05
0.0118 0 -2.34756e-05 5.66577e-06 2.41496e-05
0.0118 0 -2.34756e-05 5.66577e-06 2.41496e-05
0.012 0 -1.75854e-05 5.943e-06 1.85625e-05
0.012 0 -1.75854e-05 5.943e-06 1.85625e-05
0.0122 0 -1.23501e-05 3.52818e-06 1.28442e-05
0.0122 0 -1.23501e-05 3.52818e-06 1.28442e-05
0.0124 0 -8.12659e-06 -3.02662e-06 8.6719e-06
0.0124 0 -8.12659e-06 -3.02662e-06 8.6719e-06
0.0126 0 -5.21346e-06 -1.10364e-05 1.22058e-05
0.0126 0 -5.21346e-06 -1.10364e-05 1.22058e-05
0.0128 0 -3.70513e-06 -1.60624e-05 1.64842e-05
0.0128 0 -3.70513e-06 -1.60624e-05 1.64842e-05
0.013 0 -3.50274e-06 -1.64714e-05 1.68397e-05
0.013 0 -3.50274e-06 -1.64714e-05 1.68397e-05
0.0132 0 -4.51094e-06 -1.58702e-05 1.64988e-05
0.0132 0 -4.51094e-06 -1.58702e-05 1.64988e-05
0.0134 0 -6.71901e-06 -2.02931e-05 2.13765e-05
0.0134 0 -6.71901e-06 -2.02931e-05 2.13765e-05
0.0136 0 -1.00502e-05 -3.18861e-05 3.34324e-05
0.0136 0 -1.00502e-05 -3.18861e-05 3.34324e-05
0.0138 0 -1.42423e-05 -4.54389e-05 4.76186e-05
0.0138 0 -1.42423e-05 -4.54389e-05 4.76186e-05
0.014 0 -1.89185e-05 -5.27027e-05 5.59953e-05
0.014 0 -1.89185e-05 -5.27027e-05 5.59953e-05
0.0142 0 -2.37823e-05 -5.13576e-05 5.65969e-05
0.0142 0 -2.37823e-05 -5.13576e-05 5.65969e-05
0.0144 0 -2.87183e-05 -4.88425e-05 5.66598e-05
0.0144 0 -2.87183e-05 -4.88425e-05 5.66598e-05
0.0146 0 -3.3716e-05 -5.51227e-05 6.46164e-05
0.0146 0 -3.3716e-05 -5.51227e-05 6.46164e-05
0.0148 0 -3.87457e-05 -7.08651e-05 8.07657e-05
0.0148 0 -3.87457e-05 -7.08651e-05 8.07657e-05
0.015 0 -4.3716e-05 -8.46373e-05 9.52605e-05
0.015 0 -4.3716e-05 -8.46373e-05 9.52605e-05
0.0152 0 -4.8523e-05 -8.42858e-05 9.72552e-05
0.0152 0 -4.8523e-05 -8.42858e-05 9.72552e-05
0.0154 0 -5.3115e-05 -7.10865e-05 8.87383e-05
0.0154 0 -5.3115e-05 -7.10865e-05 8.87383e-05
0.0156 0 -5.75174e-05 -5.99605e-05 8.30874e-05
0.0156 0 -5.75174e-05 -5.99605e-05 8.30874e-05
0.0158 0 -6.18182e-05 -6.34899e-05 8.86141e-05
0.0158 0 -6.18182e-05 -6.34899e-05 8.86141e-05
0.016 0 -6.61013e-05 -7.67077e-05 0.000101259
0.016 0 -6.61013e-05 -7.67077e-05 0.000101259
0.0162 0 -7.03544e-05 -8.07985e-05 0.000107136
0.0162 0 -7.03544e-05 -8.07985e-05 0.000107136
0.0164 0 -7.44647e-05 -6.3445e-05 9.78277e-05
0.0164 0 -7.44647e-05 -6.3445e-05 9.78277e-05
0.0166 0 -7.83253e-05 -3.37951e-05 8.53051e-05
0.0166 0 -7.83253e-05 -3.37951e-05 8.53051e-05
0.0168 0 -8.19098e-05 -1.42675e-05 8.31431e-05
0.0168 0 -8.19098e-05 -1.42675e-05 8.31431e-05
0.017 0 -8.52078e-05 -1.65817e-05 8.68063e-05
0.017 0 -8.52078e-05 -1.65817e-05 8.68063e-05
0.0172 0 -8.81082e-05 -2.7897e-05 9.24191e-05
0.0172 0 -8.81082e-05 -2.7897e-05 9.24191e-05
0.0174 0 -9.0409e-05 -2.33448e-05 9.33743e-05
0.0174 0 -9.0409e-05 -2.33448e-05 9.33743e-05
0.0176 0 -9.19797e-05 7.08891e-06 9.22525e-05
0.0176 0 -9.19797e-05 7.08891e-06 9.22525e-05
0.0178 0 -9.28377e-05 4.59059e-05 0.000103567
0.0178 0 -9.28377e-05 4.59059e-05 0.000103567
0.018 0 -9.29422e-05 6.44749e-05 0.000113116
0.018 0 -9.29422e-05 6.44749e-05 0.000113116
0.0182 0 -9.20188e-05 5.28463e-05 0.000106114
0.0182 0 -9.20188e-05 5.28463e-05 0.000106114
0.0184 0 -8.96579e-05 3.20492e-05 9.52139e-05
0.0184 0 -8.96579e-05 3.20492e-05 9.52139e-05
0.0186 0 -8.56358e-05 3.42704e-05 9.22385e-05
0.0186 0 -8.56358e-05 3.42704e-05 9.22385e-05
0.0188 0 -8.01503e-05 6.90091e-05 0.000105765
0.0188 0 -8.01503e-05 6.90091e-05 0.000105765
0.019 0 -7.35787e-05 0.000109774 0.000132152
0.019 0 -7.35787e-05 0.000109774 0.000132152
0.0192 0 -6.60074e-05 0.000117999 0.000135206
0.0192 0 -6.60074e-05 0.000117999 0.000135206
0.0194 0 -5.71292e-05 8.34877e-05 0.000101163
0.0194 0 -5.71292e-05 8.34877e-05 0.000101163
0.0196 0 -4.66169e-05 4.00086e-05 6.14315e-05
0.0196 0 -4.66169e-05 4.00086e-05 6.14315e-05
0.0198 0 -3.46411e-05 3.48439e-05 4.91335e-05
0.0198 0 -3.46411e-05 3.48439e-05 4.91335e-05
0.02 0 -2.19808e-05 7.8022e-05 8.10591e-05
0.02 0 -2.19808e-05 7.8022e-05 8.10591e-05
