# Force       
# CofR        : (5.000000e-01 1.000000e-01 0.000000e+00)
#
# Time        	(total_x total_y total_z)	(pressure_x pressure_y pressure_z)	(viscous_x viscous_y viscous_z)
2.5e-05       	(6.139330e-03 6.139330e-03 2.064536e-06)	(6.139669e-03 6.139669e-03 -3.507925e-06)	(-3.387755e-07 -3.387782e-07 5.572461e-06)
5e-05         	(9.561631e-03 9.561631e-03 3.317696e-06)	(9.562143e-03 9.562143e-03 -7.831332e-06)	(-5.112358e-07 -5.112410e-07 1.114903e-05)
7.5e-05       	(1.158423e-02 1.158423e-02 3.759697e-06)	(1.158490e-02 1.158490e-02 -1.314157e-05)	(-6.632689e-07 -6.632761e-07 1.690127e-05)
0.0001        	(1.258258e-02 1.258258e-02 3.115016e-06)	(1.258339e-02 1.258339e-02 -1.967517e-05)	(-8.009128e-07 -8.009221e-07 2.279018e-05)
0.000125      	(1.282835e-02 1.282835e-02 1.132974e-06)	(1.282929e-02 1.282929e-02 -2.755262e-05)	(-9.323148e-07 -9.323260e-07 2.868559e-05)
0.00015       	(1.268122e-02 1.268122e-02 -2.348281e-06)	(1.268228e-02 1.268228e-02 -3.679675e-05)	(-1.057742e-06 -1.057755e-06 3.444847e-05)
0.000175      	(1.250575e-02 1.250575e-02 -7.210316e-06)	(1.250693e-02 1.250693e-02 -4.723512e-05)	(-1.174325e-06 -1.174339e-06 4.002480e-05)
0.0002        	(1.251536e-02 1.251537e-02 -1.303377e-05)	(1.251664e-02 1.251664e-02 -5.848292e-05)	(-1.279676e-06 -1.279693e-06 4.544915e-05)
0.000225      	(1.280229e-02 1.280229e-02 -1.932046e-05)	(1.280367e-02 1.280367e-02 -7.012711e-05)	(-1.373145e-06 -1.373163e-06 5.080664e-05)
0.00025       	(1.324623e-02 1.324623e-02 -2.574562e-05)	(1.324768e-02 1.324768e-02 -8.195811e-05)	(-1.455770e-06 -1.455789e-06 5.621249e-05)
0.000275      	(1.392300e-02 1.392300e-02 -3.220487e-05)	(1.392453e-02 1.392453e-02 -9.395432e-05)	(-1.528542e-06 -1.528562e-06 6.174944e-05)
0.0003        	(1.456664e-02 1.456664e-02 -3.888526e-05)	(1.456823e-02 1.456823e-02 -1.063290e-04)	(-1.592609e-06 -1.592631e-06 6.744371e-05)
0.000325      	(1.521493e-02 1.521493e-02 -4.599994e-05)	(1.521658e-02 1.521658e-02 -1.192869e-04)	(-1.648075e-06 -1.648097e-06 7.328700e-05)
0.00035       	(1.581019e-02 1.581019e-02 -5.395364e-05)	(1.581188e-02 1.581188e-02 -1.331853e-04)	(-1.694849e-06 -1.694871e-06 7.923163e-05)
0.000375      	(1.639488e-02 1.639488e-02 -6.278081e-05)	(1.639661e-02 1.639661e-02 -1.480023e-04)	(-1.732348e-06 -1.732371e-06 8.522145e-05)
0.0004        	(1.700042e-02 1.700042e-02 -7.238973e-05)	(1.700218e-02 1.700218e-02 -1.636009e-04)	(-1.760367e-06 -1.760391e-06 9.121119e-05)
0.000425      	(1.753678e-02 1.753678e-02 -8.273303e-05)	(1.753856e-02 1.753856e-02 -1.798983e-04)	(-1.778803e-06 -1.778828e-06 9.716527e-05)
0.00045       	(1.828403e-02 1.828403e-02 -9.332801e-05)	(1.828582e-02 1.828582e-02 -1.964250e-04)	(-1.788182e-06 -1.788208e-06 1.030970e-04)
0.000475      	(1.899147e-02 1.899146e-02 -1.041877e-04)	(1.899326e-02 1.899325e-02 -2.131834e-04)	(-1.789254e-06 -1.789280e-06 1.089957e-04)
0.0005        	(1.969041e-02 1.969041e-02 -1.148490e-04)	(1.969220e-02 1.969220e-02 -2.297546e-04)	(-1.783472e-06 -1.783497e-06 1.149056e-04)
0.000525      	(2.038975e-02 2.038975e-02 -1.251174e-04)	(2.039152e-02 2.039152e-02 -2.459409e-04)	(-1.771388e-06 -1.771412e-06 1.208235e-04)
0.00055       	(2.116496e-02 2.116497e-02 -1.349121e-04)	(2.116672e-02 2.116672e-02 -2.617440e-04)	(-1.755149e-06 -1.755174e-06 1.268319e-04)
0.000575      	(2.176739e-02 2.176739e-02 -1.443612e-04)	(2.176913e-02 2.176913e-02 -2.772228e-04)	(-1.734395e-06 -1.734420e-06 1.328616e-04)
0.0006        	(2.239692e-02 2.239692e-02 -1.532785e-04)	(2.239863e-02 2.239863e-02 -2.922373e-04)	(-1.710390e-06 -1.710414e-06 1.389588e-04)
0.000625      	(2.311536e-02 2.311536e-02 -1.614766e-04)	(2.311705e-02 2.311704e-02 -3.065671e-04)	(-1.682990e-06 -1.683013e-06 1.450905e-04)
0.00065       	(2.379725e-02 2.379725e-02 -1.696349e-04)	(2.379891e-02 2.379891e-02 -3.209557e-04)	(-1.654000e-06 -1.654020e-06 1.513209e-04)
0.000675      	(2.451501e-02 2.451502e-02 -1.771682e-04)	(2.451664e-02 2.451664e-02 -3.347344e-04)	(-1.622356e-06 -1.622374e-06 1.575662e-04)
0.0007        	(2.519088e-02 2.519089e-02 -1.848672e-04)	(2.519247e-02 2.519248e-02 -3.486960e-04)	(-1.588538e-06 -1.588554e-06 1.638288e-04)
0.000725      	(2.596084e-02 2.596085e-02 -1.922242e-04)	(2.596240e-02 2.596241e-02 -3.623548e-04)	(-1.553209e-06 -1.553213e-06 1.701306e-04)
0.00075       	(2.668887e-02 2.668889e-02 -1.992489e-04)	(2.669039e-02 2.669041e-02 -3.757667e-04)	(-1.517689e-06 -1.517648e-06 1.765177e-04)
0.000775      	(2.745525e-02 2.745527e-02 -2.062047e-04)	(2.745673e-02 2.745674e-02 -3.890626e-04)	(-1.479936e-06 -1.479895e-06 1.828579e-04)
0.0008        	(2.822507e-02 2.822508e-02 -2.125166e-04)	(2.822651e-02 2.822653e-02 -4.017751e-04)	(-1.442034e-06 -1.441997e-06 1.892585e-04)
0.000825      	(2.892668e-02 2.892669e-02 -2.187555e-04)	(2.892808e-02 2.892810e-02 -4.144856e-04)	(-1.404433e-06 -1.404399e-06 1.957300e-04)
0.00085       	(2.979375e-02 2.979376e-02 -2.248571e-04)	(2.979512e-02 2.979512e-02 -4.269897e-04)	(-1.365107e-06 -1.365051e-06 2.021326e-04)
0.000875      	(3.058806e-02 3.058806e-02 -2.308101e-04)	(3.058939e-02 3.058939e-02 -4.394016e-04)	(-1.326438e-06 -1.326356e-06 2.085915e-04)
0.0009        	(3.133093e-02 3.133093e-02 -2.359147e-04)	(3.133222e-02 3.133222e-02 -4.510542e-04)	(-1.289039e-06 -1.288929e-06 2.151396e-04)
0.000925      	(3.214970e-02 3.214970e-02 -2.415453e-04)	(3.215095e-02 3.215095e-02 -4.632395e-04)	(-1.251532e-06 -1.251445e-06 2.216942e-04)
0.00095       	(3.300427e-02 3.300427e-02 -2.463735e-04)	(3.300548e-02 3.300549e-02 -4.745853e-04)	(-1.213582e-06 -1.213534e-06 2.282118e-04)
0.000975      	(3.385947e-02 3.385948e-02 -2.505426e-04)	(3.386065e-02 3.386066e-02 -4.853122e-04)	(-1.176523e-06 -1.176517e-06 2.347696e-04)
0.001         	(3.467432e-02 3.467433e-02 -2.546117e-04)	(3.467546e-02 3.467547e-02 -4.959382e-04)	(-1.139732e-06 -1.139801e-06 2.413265e-04)
0.001025      	(3.554380e-02 3.554380e-02 -2.586727e-04)	(3.554490e-02 3.554490e-02 -5.064287e-04)	(-1.101874e-06 -1.101978e-06 2.477560e-04)
0.00105       	(3.638965e-02 3.638965e-02 -2.622353e-04)	(3.639072e-02 3.639072e-02 -5.165658e-04)	(-1.066566e-06 -1.066713e-06 2.543305e-04)
0.001075      	(3.720805e-02 3.720804e-02 -2.653841e-04)	(3.720908e-02 3.720908e-02 -5.263628e-04)	(-1.032776e-06 -1.032968e-06 2.609787e-04)
0.0011        	(3.806967e-02 3.806966e-02 -2.686614e-04)	(3.807067e-02 3.807066e-02 -5.362540e-04)	(-9.994869e-07 -9.996747e-07 2.675926e-04)
0.001125      	(3.896128e-02 3.896127e-02 -2.714163e-04)	(3.896225e-02 3.896224e-02 -5.455811e-04)	(-9.664788e-07 -9.666762e-07 2.741648e-04)
0.00115       	(3.986424e-02 3.986424e-02 -2.736791e-04)	(3.986518e-02 3.986517e-02 -5.543659e-04)	(-9.333056e-07 -9.334934e-07 2.806869e-04)
0.001175      	(4.070065e-02 4.070065e-02 -2.766142e-04)	(4.070155e-02 4.070155e-02 -5.638768e-04)	(-9.016015e-07 -9.018158e-07 2.872626e-04)
0.0012        	(4.159605e-02 4.159605e-02 -2.782380e-04)	(4.159692e-02 4.159692e-02 -5.721809e-04)	(-8.719568e-07 -8.721417e-07 2.939430e-04)
0.001225      	(4.263030e-02 4.263029e-02 -2.796962e-04)	(4.263114e-02 4.263114e-02 -5.802305e-04)	(-8.423794e-07 -8.425669e-07 3.005343e-04)
0.00125       	(4.340338e-02 4.340337e-02 -2.813896e-04)	(4.340419e-02 4.340418e-02 -5.884776e-04)	(-8.138984e-07 -8.140449e-07 3.070881e-04)
0.001275      	(4.427976e-02 4.427975e-02 -2.821002e-04)	(4.428055e-02 4.428054e-02 -5.958444e-04)	(-7.873758e-07 -7.874725e-07 3.137442e-04)
0.0013        	(4.509567e-02 4.509566e-02 -2.823858e-04)	(4.509643e-02 4.509643e-02 -6.028450e-04)	(-7.627120e-07 -7.627322e-07 3.204592e-04)
0.001325      	(4.591172e-02 4.591174e-02 -2.828862e-04)	(4.591246e-02 4.591247e-02 -6.099636e-04)	(-7.379925e-07 -7.380581e-07 3.270775e-04)
0.00135       	(4.711449e-02 4.711448e-02 -2.824964e-04)	(4.711520e-02 4.711519e-02 -6.160393e-04)	(-7.132272e-07 -7.131739e-07 3.335429e-04)
0.001375      	(4.816428e-02 4.816427e-02 -2.813178e-04)	(4.816497e-02 4.816496e-02 -6.214192e-04)	(-6.914511e-07 -6.913532e-07 3.401014e-04)
0.0014        	(4.907213e-02 4.907213e-02 -2.817038e-04)	(4.907280e-02 4.907280e-02 -6.284209e-04)	(-6.719219e-07 -6.717299e-07 3.467171e-04)
0.001425      	(4.983396e-02 4.983395e-02 -2.805352e-04)	(4.983461e-02 4.983461e-02 -6.341039e-04)	(-6.560041e-07 -6.557586e-07 3.535687e-04)
0.00145       	(5.100320e-02 5.100321e-02 -2.798493e-04)	(5.100384e-02 5.100385e-02 -6.398242e-04)	(-6.372366e-07 -6.368284e-07 3.599749e-04)
0.001475      	(5.149486e-02 5.149487e-02 -2.778624e-04)	(5.149548e-02 5.149549e-02 -6.446522e-04)	(-6.243421e-07 -6.238656e-07 3.667897e-04)
0.0015        	(5.294404e-02 5.294405e-02 -2.746073e-04)	(5.294465e-02 5.294466e-02 -6.479648e-04)	(-6.094468e-07 -6.088937e-07 3.733576e-04)
0.001525      	(5.361316e-02 5.361317e-02 -2.736805e-04)	(5.361376e-02 5.361376e-02 -6.535905e-04)	(-5.975039e-07 -5.966415e-07 3.799100e-04)
0.00155       	(5.458771e-02 5.458771e-02 -2.702375e-04)	(5.458829e-02 5.458829e-02 -6.567935e-04)	(-5.870500e-07 -5.860271e-07 3.865560e-04)
0.001575      	(5.539767e-02 5.539766e-02 -2.688529e-04)	(5.539824e-02 5.539823e-02 -6.617362e-04)	(-5.755814e-07 -5.744092e-07 3.928833e-04)
0.0016        	(5.650822e-02 5.650821e-02 -2.657674e-04)	(5.650879e-02 5.650878e-02 -6.653052e-04)	(-5.678744e-07 -5.666077e-07 3.995379e-04)
0.001625      	(5.742517e-02 5.742517e-02 -2.638116e-04)	(5.742574e-02 5.742573e-02 -6.700722e-04)	(-5.626382e-07 -5.612627e-07 4.062606e-04)
0.00165       	(5.837320e-02 5.837320e-02 -2.597704e-04)	(5.837376e-02 5.837376e-02 -6.726252e-04)	(-5.575417e-07 -5.561195e-07 4.128548e-04)
0.001675      	(5.943345e-02 5.943347e-02 -2.554489e-04)	(5.943400e-02 5.943402e-02 -6.748733e-04)	(-5.534906e-07 -5.520218e-07 4.194244e-04)
0.0017        	(6.031911e-02 6.031911e-02 -2.520087e-04)	(6.031966e-02 6.031966e-02 -6.779936e-04)	(-5.507895e-07 -5.493065e-07 4.259850e-04)
0.001725      	(6.125778e-02 6.125779e-02 -2.485571e-04)	(6.125833e-02 6.125834e-02 -6.810187e-04)	(-5.485082e-07 -5.470495e-07 4.324616e-04)
0.00175       	(6.224146e-02 6.224147e-02 -2.444760e-04)	(6.224201e-02 6.224201e-02 -6.833189e-04)	(-5.467138e-07 -5.452726e-07 4.388430e-04)
0.001775      	(6.313384e-02 6.313384e-02 -2.400983e-04)	(6.313439e-02 6.313438e-02 -6.855832e-04)	(-5.478582e-07 -5.464156e-07 4.454849e-04)
0.0018        	(6.419844e-02 6.419842e-02 -2.366467e-04)	(6.419899e-02 6.419897e-02 -6.884265e-04)	(-5.475713e-07 -5.461142e-07 4.517798e-04)
0.001825      	(6.513628e-02 6.513626e-02 -2.324560e-04)	(6.513683e-02 6.513681e-02 -6.907153e-04)	(-5.496784e-07 -5.482475e-07 4.582592e-04)
0.00185       	(6.619722e-02 6.619721e-02 -2.274393e-04)	(6.619777e-02 6.619776e-02 -6.923206e-04)	(-5.535654e-07 -5.521407e-07 4.648812e-04)
0.001875      	(6.708075e-02 6.708074e-02 -2.231544e-04)	(6.708130e-02 6.708130e-02 -6.947436e-04)	(-5.591263e-07 -5.577333e-07 4.715891e-04)
0.0019        	(6.810372e-02 6.810371e-02 -2.171577e-04)	(6.810428e-02 6.810427e-02 -6.950891e-04)	(-5.629483e-07 -5.615950e-07 4.779314e-04)
0.001925      	(6.911860e-02 6.911861e-02 -2.119255e-04)	(6.911917e-02 6.911918e-02 -6.960123e-04)	(-5.668783e-07 -5.653674e-07 4.840867e-04)
0.00195       	(7.022919e-02 7.022918e-02 -2.080835e-04)	(7.022976e-02 7.022976e-02 -6.988582e-04)	(-5.748126e-07 -5.733665e-07 4.907747e-04)
0.001975      	(7.110892e-02 7.110895e-02 -2.027834e-04)	(7.110950e-02 7.110953e-02 -7.001620e-04)	(-5.828099e-07 -5.814635e-07 4.973786e-04)
0.002         	(7.182128e-02 7.182132e-02 -1.953258e-04)	(7.182187e-02 7.182190e-02 -6.987027e-04)	(-5.882661e-07 -5.870047e-07 5.033768e-04)
0.002025      	(7.291075e-02 7.291078e-02 -1.897498e-04)	(7.291135e-02 7.291138e-02 -6.994691e-04)	(-5.953975e-07 -5.942582e-07 5.097193e-04)
0.00205       	(7.389893e-02 7.389895e-02 -1.838486e-04)	(7.389953e-02 7.389956e-02 -7.002675e-04)	(-6.052678e-07 -6.042451e-07 5.164189e-04)
0.002075      	(7.486683e-02 7.486687e-02 -1.791885e-04)	(7.486745e-02 7.486748e-02 -7.018318e-04)	(-6.133027e-07 -6.123460e-07 5.226433e-04)
0.0021        	(7.590502e-02 7.590506e-02 -1.731195e-04)	(7.590565e-02 7.590568e-02 -7.020256e-04)	(-6.218464e-07 -6.210804e-07 5.289061e-04)
0.002125      	(7.695699e-02 7.695701e-02 -1.670001e-04)	(7.695762e-02 7.695764e-02 -7.022600e-04)	(-6.314787e-07 -6.308056e-07 5.352600e-04)
0.00215       	(7.793561e-02 7.793563e-02 -1.609205e-04)	(7.793625e-02 7.793627e-02 -7.024703e-04)	(-6.413956e-07 -6.408837e-07 5.415498e-04)
0.002175      	(7.886874e-02 7.886877e-02 -1.547490e-04)	(7.886939e-02 7.886942e-02 -7.025840e-04)	(-6.516444e-07 -6.513271e-07 5.478350e-04)
0.0022        	(7.983078e-02 7.983080e-02 -1.481016e-04)	(7.983144e-02 7.983146e-02 -7.023221e-04)	(-6.626091e-07 -6.624314e-07 5.542205e-04)
0.002225      	(8.077195e-02 8.077197e-02 -1.423691e-04)	(8.077262e-02 8.077265e-02 -7.032292e-04)	(-6.752774e-07 -6.751359e-07 5.608601e-04)
0.00225       	(8.177223e-02 8.177226e-02 -1.368244e-04)	(8.177292e-02 8.177294e-02 -7.037200e-04)	(-6.849782e-07 -6.850113e-07 5.668956e-04)
0.002275      	(8.269884e-02 8.269887e-02 -1.297254e-04)	(8.269954e-02 8.269956e-02 -7.030862e-04)	(-6.967728e-07 -6.969532e-07 5.733609e-04)
0.0023        	(8.408958e-02 8.408960e-02 -1.217884e-04)	(8.409029e-02 8.409031e-02 -7.013864e-04)	(-7.074533e-07 -7.078293e-07 5.795980e-04)
0.002325      	(8.467252e-02 8.467254e-02 -1.184924e-04)	(8.467324e-02 8.467326e-02 -7.040006e-04)	(-7.180825e-07 -7.185256e-07 5.855082e-04)
0.00235       	(8.530385e-02 8.530387e-02 -1.102317e-04)	(8.530458e-02 8.530460e-02 -7.020771e-04)	(-7.294917e-07 -7.302017e-07 5.918454e-04)
0.002375      	(8.655130e-02 8.655132e-02 -1.013560e-04)	(8.655204e-02 8.655206e-02 -6.994952e-04)	(-7.403037e-07 -7.410456e-07 5.981392e-04)
0.0024        	(8.769898e-02 8.769899e-02 -9.555409e-05)	(8.769973e-02 8.769975e-02 -6.994423e-04)	(-7.498857e-07 -7.508715e-07 6.038882e-04)
0.002425      	(8.861387e-02 8.861388e-02 -9.071310e-05)	(8.861463e-02 8.861464e-02 -7.006782e-04)	(-7.609536e-07 -7.622356e-07 6.099652e-04)
0.00245       	(8.955620e-02 8.955621e-02 -8.051994e-05)	(8.955697e-02 8.955698e-02 -6.970798e-04)	(-7.732084e-07 -7.748107e-07 6.165599e-04)
0.002475      	(9.065457e-02 9.065457e-02 -7.606440e-05)	(9.065536e-02 9.065536e-02 -6.985610e-04)	(-7.833159e-07 -7.851838e-07 6.224966e-04)
0.0025        	(9.127140e-02 9.127140e-02 -7.023446e-05)	(9.127220e-02 9.127219e-02 -6.988116e-04)	(-7.948570e-07 -7.970496e-07 6.285771e-04)
0.002525      	(9.244535e-02 9.244534e-02 -6.295948e-05)	(9.244616e-02 9.244615e-02 -6.972282e-04)	(-8.036539e-07 -8.061159e-07 6.342687e-04)
0.00255       	(9.332173e-02 9.332172e-02 -5.587074e-05)	(9.332255e-02 9.332254e-02 -6.965822e-04)	(-8.154331e-07 -8.182541e-07 6.407114e-04)
0.002575      	(9.452955e-02 9.452955e-02 -4.831899e-05)	(9.453038e-02 9.453038e-02 -6.949490e-04)	(-8.252086e-07 -8.283991e-07 6.466300e-04)
0.0026        	(9.543755e-02 9.543753e-02 -4.362339e-05)	(9.543838e-02 9.543837e-02 -6.965141e-04)	(-8.363315e-07 -8.398160e-07 6.528907e-04)
0.002625      	(9.657072e-02 9.657069e-02 -3.541152e-05)	(9.657156e-02 9.657154e-02 -6.937454e-04)	(-8.446666e-07 -8.483832e-07 6.583338e-04)
0.00265       	(9.742912e-02 9.742910e-02 -2.797643e-05)	(9.742998e-02 9.742996e-02 -6.926810e-04)	(-8.564723e-07 -8.604384e-07 6.647046e-04)
0.002675      	(9.823243e-02 9.823240e-02 -1.982839e-05)	(9.823330e-02 9.823327e-02 -6.904054e-04)	(-8.660434e-07 -8.703774e-07 6.705770e-04)
0.0027        	(9.912159e-02 9.912155e-02 -1.140791e-05)	(9.912246e-02 9.912243e-02 -6.876146e-04)	(-8.746766e-07 -8.793561e-07 6.762067e-04)
0.002725      	(1.002318e-01 1.002317e-01 -9.078882e-06)	(1.002327e-01 1.002326e-01 -6.914047e-04)	(-8.847312e-07 -8.896807e-07 6.823258e-04)
0.00275       	(1.011402e-01 1.011402e-01 -1.394991e-06)	(1.011411e-01 1.011411e-01 -6.894234e-04)	(-8.931673e-07 -8.984874e-07 6.880284e-04)
0.002775      	(1.019702e-01 1.019702e-01 5.567729e-06)	(1.019711e-01 1.019711e-01 -6.879380e-04)	(-9.004054e-07 -9.060591e-07 6.935057e-04)
0.0028        	(1.030982e-01 1.030982e-01 1.205747e-05)	(1.030991e-01 1.030991e-01 -6.868867e-04)	(-9.074102e-07 -9.131319e-07 6.989442e-04)
0.002825      	(1.039174e-01 1.039174e-01 1.909467e-05)	(1.039184e-01 1.039183e-01 -6.855452e-04)	(-9.154963e-07 -9.215027e-07 7.046399e-04)
0.00285       	(1.050197e-01 1.050196e-01 2.535775e-05)	(1.050206e-01 1.050205e-01 -6.849381e-04)	(-9.227782e-07 -9.291903e-07 7.102959e-04)
0.002875      	(1.060387e-01 1.060386e-01 3.070165e-05)	(1.060396e-01 1.060395e-01 -6.853233e-04)	(-9.307936e-07 -9.376249e-07 7.160249e-04)
0.0029        	(1.069159e-01 1.069158e-01 3.925822e-05)	(1.069168e-01 1.069167e-01 -6.822093e-04)	(-9.380343e-07 -9.454145e-07 7.214675e-04)
0.002925      	(1.079625e-01 1.079624e-01 4.640007e-05)	(1.079635e-01 1.079634e-01 -6.801178e-04)	(-9.436993e-07 -9.516073e-07 7.265179e-04)
0.00295       	(1.088529e-01 1.088527e-01 5.413018e-05)	(1.088538e-01 1.088537e-01 -6.782919e-04)	(-9.516280e-07 -9.601325e-07 7.324221e-04)
0.002975      	(1.096259e-01 1.096258e-01 5.838118e-05)	(1.096268e-01 1.096267e-01 -6.793169e-04)	(-9.574731e-07 -9.666002e-07 7.376981e-04)
0.003         	(1.106919e-01 1.106918e-01 6.157544e-05)	(1.106929e-01 1.106928e-01 -6.812148e-04)	(-9.627498e-07 -9.725998e-07 7.427903e-04)
0.003025      	(1.099836e-01 1.099834e-01 1.533773e-04)	(1.099845e-01 1.099844e-01 -5.924992e-04)	(-9.227351e-07 -9.333088e-07 7.458765e-04)
0.00305       	(1.085941e-01 1.085939e-01 2.776078e-04)	(1.085949e-01 1.085948e-01 -4.710116e-04)	(-8.811613e-07 -8.925302e-07 7.486194e-04)
0.003075      	(1.064622e-01 1.064621e-01 4.256009e-04)	(1.064630e-01 1.064629e-01 -3.229645e-04)	(-8.345053e-07 -8.467899e-07 7.485654e-04)
0.0031        	(1.041442e-01 1.041440e-01 5.770153e-04)	(1.041450e-01 1.041448e-01 -1.711857e-04)	(-7.908216e-07 -8.041055e-07 7.482010e-04)
0.003125      	(1.035549e-01 1.035548e-01 6.418026e-04)	(1.035557e-01 1.035556e-01 -1.051451e-04)	(-7.899360e-07 -8.043037e-07 7.469476e-04)
0.00315       	(1.037078e-01 1.037076e-01 6.632232e-04)	(1.037086e-01 1.037084e-01 -8.219138e-05)	(-7.938772e-07 -8.088533e-07 7.454146e-04)
0.003175      	(1.045453e-01 1.045451e-01 6.640809e-04)	(1.045461e-01 1.045459e-01 -7.997043e-05)	(-7.977930e-07 -8.138560e-07 7.440513e-04)
0.0032        	(1.054493e-01 1.054491e-01 6.560874e-04)	(1.054501e-01 1.054499e-01 -8.641100e-05)	(-7.986094e-07 -8.157247e-07 7.424984e-04)
0.003225      	(1.063482e-01 1.063479e-01 6.488534e-04)	(1.063490e-01 1.063488e-01 -9.204640e-05)	(-7.984401e-07 -8.166217e-07 7.408998e-04)
0.00325       	(1.069663e-01 1.069661e-01 6.478016e-04)	(1.069671e-01 1.069669e-01 -9.157877e-05)	(-7.992445e-07 -8.181775e-07 7.393804e-04)
0.003275      	(1.075188e-01 1.075186e-01 6.538123e-04)	(1.075196e-01 1.075194e-01 -8.423725e-05)	(-8.022636e-07 -8.220616e-07 7.380496e-04)
0.0033        	(1.079632e-01 1.079630e-01 6.593358e-04)	(1.079640e-01 1.079638e-01 -7.661381e-05)	(-8.063076e-07 -8.266671e-07 7.359496e-04)
0.003325      	(1.082293e-01 1.082291e-01 6.704812e-04)	(1.082301e-01 1.082299e-01 -6.338956e-05)	(-8.121604e-07 -8.335615e-07 7.338708e-04)
0.00335       	(1.085334e-01 1.085332e-01 6.781746e-04)	(1.085343e-01 1.085341e-01 -5.352519e-05)	(-8.190785e-07 -8.416092e-07 7.316998e-04)
0.003375      	(1.087973e-01 1.087970e-01 6.838821e-04)	(1.087981e-01 1.087979e-01 -4.611569e-05)	(-8.281084e-07 -8.518316e-07 7.299978e-04)
0.0034        	(1.091551e-01 1.091548e-01 6.901976e-04)	(1.091559e-01 1.091557e-01 -3.654220e-05)	(-8.338983e-07 -8.588499e-07 7.267398e-04)
0.003425      	(1.095099e-01 1.095097e-01 6.950825e-04)	(1.095108e-01 1.095105e-01 -2.914539e-05)	(-8.424562e-07 -8.686033e-07 7.242279e-04)
0.00345       	(1.097368e-01 1.097365e-01 7.016938e-04)	(1.097376e-01 1.097374e-01 -2.021608e-05)	(-8.529474e-07 -8.802981e-07 7.219099e-04)
0.003475      	(1.099720e-01 1.099717e-01 7.046195e-04)	(1.099728e-01 1.099726e-01 -1.381235e-05)	(-8.609255e-07 -8.895555e-07 7.184318e-04)
0.0035        	(1.100941e-01 1.100939e-01 7.105734e-04)	(1.100950e-01 1.100948e-01 -5.544519e-06)	(-8.728655e-07 -9.026696e-07 7.161179e-04)
0.003525      	(1.103272e-01 1.103270e-01 7.109393e-04)	(1.103281e-01 1.103279e-01 -1.721092e-06)	(-8.823332e-07 -9.134356e-07 7.126604e-04)
0.00355       	(1.106690e-01 1.106687e-01 7.151700e-04)	(1.106699e-01 1.106696e-01 5.809547e-06)	(-8.923441e-07 -9.246446e-07 7.093605e-04)
0.003575      	(1.107237e-01 1.107235e-01 7.160623e-04)	(1.107247e-01 1.107245e-01 9.431493e-06)	(-9.038336e-07 -9.373910e-07 7.066308e-04)
0.0036        	(1.108605e-01 1.108602e-01 7.168515e-04)	(1.108614e-01 1.108612e-01 1.378012e-05)	(-9.111998e-07 -9.455007e-07 7.030714e-04)
0.003625      	(1.111641e-01 1.111638e-01 7.171133e-04)	(1.111650e-01 1.111647e-01 1.749184e-05)	(-9.169733e-07 -9.524491e-07 6.996214e-04)
0.00365       	(1.113550e-01 1.113547e-01 7.151723e-04)	(1.113559e-01 1.113556e-01 1.948455e-05)	(-9.197016e-07 -9.560342e-07 6.956877e-04)
0.003675      	(1.116696e-01 1.116693e-01 7.123589e-04)	(1.116705e-01 1.116703e-01 2.037075e-05)	(-9.205010e-07 -9.579755e-07 6.919881e-04)
0.0037        	(1.118237e-01 1.118234e-01 7.121056e-04)	(1.118246e-01 1.118244e-01 2.439010e-05)	(-9.165781e-07 -9.552290e-07 6.877155e-04)
0.003725      	(1.119564e-01 1.119561e-01 7.102351e-04)	(1.119573e-01 1.119571e-01 2.643829e-05)	(-9.111779e-07 -9.509563e-07 6.837968e-04)
0.00375       	(1.122952e-01 1.122949e-01 7.083203e-04)	(1.122961e-01 1.122959e-01 2.861988e-05)	(-9.025543e-07 -9.434477e-07 6.797004e-04)
0.003775      	(1.122179e-01 1.122176e-01 7.042093e-04)	(1.122188e-01 1.122186e-01 2.891555e-05)	(-8.912193e-07 -9.330823e-07 6.752938e-04)
0.0038        	(1.123955e-01 1.123953e-01 7.001737e-04)	(1.123964e-01 1.123962e-01 2.888722e-05)	(-8.777430e-07 -9.207432e-07 6.712865e-04)
0.003825      	(1.123917e-01 1.123914e-01 6.974335e-04)	(1.123925e-01 1.123924e-01 3.046134e-05)	(-8.613903e-07 -9.056276e-07 6.669722e-04)
0.00385       	(1.125930e-01 1.125928e-01 6.927025e-04)	(1.125938e-01 1.125936e-01 3.057946e-05)	(-8.424552e-07 -8.877989e-07 6.621230e-04)
0.003875      	(1.126107e-01 1.126105e-01 6.885978e-04)	(1.126115e-01 1.126114e-01 3.120216e-05)	(-8.231252e-07 -8.694203e-07 6.573956e-04)
0.0039        	(1.127238e-01 1.127236e-01 6.826334e-04)	(1.127246e-01 1.127245e-01 2.959735e-05)	(-8.036692e-07 -8.510587e-07 6.530361e-04)
0.003925      	(1.125825e-01 1.125823e-01 6.800687e-04)	(1.125833e-01 1.125831e-01 3.178380e-05)	(-7.811290e-07 -8.296417e-07 6.482849e-04)
0.00395       	(1.129455e-01 1.129453e-01 6.747896e-04)	(1.129463e-01 1.129461e-01 3.170538e-05)	(-7.545860e-07 -8.041269e-07 6.430842e-04)
0.003975      	(1.129280e-01 1.129278e-01 6.724510e-04)	(1.129288e-01 1.129286e-01 3.384727e-05)	(-7.307216e-07 -7.813643e-07 6.386037e-04)
0.004         	(1.131608e-01 1.131606e-01 6.670518e-04)	(1.131615e-01 1.131613e-01 3.333629e-05)	(-7.046609e-07 -7.563898e-07 6.337155e-04)
0.004025      	(1.131862e-01 1.131860e-01 6.610675e-04)	(1.131869e-01 1.131867e-01 3.244948e-05)	(-6.772483e-07 -7.300626e-07 6.286180e-04)
0.00405       	(1.131260e-01 1.131258e-01 6.550828e-04)	(1.131266e-01 1.131265e-01 3.140549e-05)	(-6.500230e-07 -7.038887e-07 6.236773e-04)
0.004075      	(1.131231e-01 1.131229e-01 6.502937e-04)	(1.131237e-01 1.131236e-01 3.180269e-05)	(-6.212812e-07 -6.762755e-07 6.184910e-04)
0.0041        	(1.131043e-01 1.131041e-01 6.455334e-04)	(1.131049e-01 1.131048e-01 3.229597e-05)	(-5.923610e-07 -6.484630e-07 6.132374e-04)
0.004125      	(1.130688e-01 1.130686e-01 6.392587e-04)	(1.130693e-01 1.130692e-01 3.128957e-05)	(-5.636335e-07 -6.208315e-07 6.079691e-04)
0.00415       	(1.131202e-01 1.131200e-01 6.328564e-04)	(1.131207e-01 1.131206e-01 2.989694e-05)	(-5.375186e-07 -5.957788e-07 6.029595e-04)
0.004175      	(1.130299e-01 1.130297e-01 6.282173e-04)	(1.130304e-01 1.130303e-01 3.055969e-05)	(-5.095460e-07 -5.688497e-07 5.976576e-04)
0.0042        	(1.129628e-01 1.129626e-01 6.205955e-04)	(1.129633e-01 1.129631e-01 2.817973e-05)	(-4.831886e-07 -5.434864e-07 5.924157e-04)
0.004225      	(1.131324e-01 1.131322e-01 6.155694e-04)	(1.131328e-01 1.131327e-01 2.862945e-05)	(-4.547714e-07 -5.160534e-07 5.869399e-04)
0.00425       	(1.130767e-01 1.130766e-01 6.112009e-04)	(1.130772e-01 1.130770e-01 2.948572e-05)	(-4.301964e-07 -4.924135e-07 5.817152e-04)
0.004275      	(1.130591e-01 1.130590e-01 6.035554e-04)	(1.130596e-01 1.130595e-01 2.739147e-05)	(-4.030374e-07 -4.661082e-07 5.761639e-04)
0.0043        	(1.129014e-01 1.129012e-01 5.993334e-04)	(1.129017e-01 1.129017e-01 2.847896e-05)	(-3.796667e-07 -4.436664e-07 5.708544e-04)
0.004325      	(1.129026e-01 1.129025e-01 5.920216e-04)	(1.129030e-01 1.129029e-01 2.657112e-05)	(-3.559958e-07 -4.208767e-07 5.654505e-04)
0.00435       	(1.129842e-01 1.129840e-01 5.838524e-04)	(1.129845e-01 1.129844e-01 2.392979e-05)	(-3.311392e-07 -3.968953e-07 5.599226e-04)
0.004375      	(1.129489e-01 1.129487e-01 5.786795e-04)	(1.129492e-01 1.129491e-01 2.423524e-05)	(-3.082247e-07 -3.748371e-07 5.544442e-04)
0.0044        	(1.128637e-01 1.128636e-01 5.707815e-04)	(1.128640e-01 1.128639e-01 2.176136e-05)	(-2.874840e-07 -3.548982e-07 5.490201e-04)
0.004425      	(1.126165e-01 1.126164e-01 5.663831e-04)	(1.126168e-01 1.126167e-01 2.289501e-05)	(-2.654014e-07 -3.337001e-07 5.434880e-04)
0.00445       	(1.126460e-01 1.126458e-01 5.624258e-04)	(1.126462e-01 1.126461e-01 2.446846e-05)	(-2.430924e-07 -3.122346e-07 5.379573e-04)
0.004475      	(1.125868e-01 1.125867e-01 5.554546e-04)	(1.125870e-01 1.125870e-01 2.301686e-05)	(-2.233316e-07 -2.933042e-07 5.324377e-04)
0.0045        	(1.125389e-01 1.125388e-01 5.507345e-04)	(1.125391e-01 1.125391e-01 2.384624e-05)	(-2.030855e-07 -2.738948e-07 5.268883e-04)
0.004525      	(1.125274e-01 1.125273e-01 5.454325e-04)	(1.125276e-01 1.125275e-01 2.408717e-05)	(-1.818431e-07 -2.534638e-07 5.213454e-04)
0.00455       	(1.125662e-01 1.125661e-01 5.395000e-04)	(1.125664e-01 1.125664e-01 2.371800e-05)	(-1.624400e-07 -2.348135e-07 5.157820e-04)
0.004575      	(1.123105e-01 1.123104e-01 5.331014e-04)	(1.123106e-01 1.123106e-01 2.290526e-05)	(-1.438570e-07 -2.169968e-07 5.101962e-04)
0.0046        	(1.121968e-01 1.121967e-01 5.257671e-04)	(1.121969e-01 1.121969e-01 2.109639e-05)	(-1.241708e-07 -1.981167e-07 5.046708e-04)
0.004625      	(1.122690e-01 1.122689e-01 5.219146e-04)	(1.122691e-01 1.122691e-01 2.289157e-05)	(-1.066413e-07 -1.813897e-07 4.990230e-04)
0.00465       	(1.120113e-01 1.120112e-01 5.147283e-04)	(1.120114e-01 1.120114e-01 2.120238e-05)	(-8.805143e-08 -1.635941e-07 4.935260e-04)
0.004675      	(1.118605e-01 1.118604e-01 5.106839e-04)	(1.118605e-01 1.118606e-01 2.283128e-05)	(-7.088438e-08 -1.472180e-07 4.878527e-04)
0.0047        	(1.118629e-01 1.118628e-01 5.036193e-04)	(1.118629e-01 1.118629e-01 2.125106e-05)	(-5.249651e-08 -1.296693e-07 4.823682e-04)
0.004725      	(1.118125e-01 1.118124e-01 4.982307e-04)	(1.118125e-01 1.118125e-01 2.146711e-05)	(-3.551689e-08 -1.134545e-07 4.767635e-04)
0.00475       	(1.117398e-01 1.117398e-01 4.907399e-04)	(1.117398e-01 1.117399e-01 1.953491e-05)	(-1.930110e-08 -9.804835e-08 4.712050e-04)
0.004775      	(1.116717e-01 1.116717e-01 4.869605e-04)	(1.116717e-01 1.116718e-01 2.125440e-05)	(-2.943429e-09 -8.252823e-08 4.657061e-04)
0.0048        	(1.115858e-01 1.115858e-01 4.808563e-04)	(1.115858e-01 1.115859e-01 2.071757e-05)	(1.230942e-08 -6.813530e-08 4.601387e-04)
0.004825      	(1.114650e-01 1.114650e-01 4.759056e-04)	(1.114650e-01 1.114651e-01 2.144763e-05)	(2.714645e-08 -5.419481e-08 4.544579e-04)
0.00485       	(1.113721e-01 1.113721e-01 4.712310e-04)	(1.113720e-01 1.113721e-01 2.220656e-05)	(4.167113e-08 -4.053615e-08 4.490244e-04)
0.004875      	(1.112611e-01 1.112611e-01 4.669302e-04)	(1.112610e-01 1.112611e-01 2.346302e-05)	(5.541599e-08 -2.762943e-08 4.434672e-04)
0.0049        	(1.111543e-01 1.111543e-01 4.609028e-04)	(1.111543e-01 1.111543e-01 2.296358e-05)	(6.848472e-08 -1.539452e-08 4.379392e-04)
0.004925      	(1.109069e-01 1.109069e-01 4.566324e-04)	(1.109068e-01 1.109069e-01 2.434710e-05)	(8.107653e-08 -3.590212e-09 4.322853e-04)
0.00495       	(1.109532e-01 1.109532e-01 4.515135e-04)	(1.109531e-01 1.109532e-01 2.471766e-05)	(9.352123e-08 8.019323e-09 4.267959e-04)
0.004975      	(1.110104e-01 1.110105e-01 4.463796e-04)	(1.110103e-01 1.110104e-01 2.488548e-05)	(1.046383e-07 1.830173e-08 4.214941e-04)
0.005         	(1.108037e-01 1.108037e-01 4.396989e-04)	(1.108036e-01 1.108037e-01 2.372369e-05)	(1.146197e-07 2.741173e-08 4.159752e-04)
0.005025      	(1.107023e-01 1.107024e-01 4.338989e-04)	(1.107022e-01 1.107023e-01 2.352085e-05)	(1.240856e-07 3.604838e-08 4.103780e-04)
0.00505       	(1.105442e-01 1.105442e-01 4.293155e-04)	(1.105441e-01 1.105442e-01 2.417801e-05)	(1.317985e-07 4.303763e-08 4.051375e-04)
0.005075      	(1.104719e-01 1.104719e-01 4.238448e-04)	(1.104718e-01 1.104719e-01 2.413304e-05)	(1.392999e-07 4.978660e-08 3.997117e-04)
0.0051        	(1.103641e-01 1.103642e-01 4.192245e-04)	(1.103640e-01 1.103641e-01 2.492618e-05)	(1.458054e-07 5.557719e-08 3.942983e-04)
0.005125      	(1.102131e-01 1.102131e-01 4.143754e-04)	(1.102129e-01 1.102130e-01 2.538495e-05)	(1.511637e-07 6.016567e-08 3.889905e-04)
0.00515       	(1.101463e-01 1.101463e-01 4.090006e-04)	(1.101462e-01 1.101463e-01 2.557859e-05)	(1.559481e-07 6.419981e-08 3.834220e-04)
0.005175      	(1.100322e-01 1.100322e-01 4.044273e-04)	(1.100320e-01 1.100321e-01 2.626426e-05)	(1.586661e-07 6.619698e-08 3.781630e-04)
0.0052        	(1.098464e-01 1.098464e-01 3.972776e-04)	(1.098462e-01 1.098463e-01 2.444983e-05)	(1.605272e-07 6.733929e-08 3.728278e-04)
0.005225      	(1.100625e-01 1.100625e-01 3.933582e-04)	(1.100623e-01 1.100624e-01 2.571658e-05)	(1.611489e-07 6.728782e-08 3.676416e-04)
0.00525       	(1.097583e-01 1.097583e-01 3.871215e-04)	(1.097581e-01 1.097583e-01 2.494667e-05)	(1.597161e-07 6.518747e-08 3.621749e-04)
0.005275      	(1.096866e-01 1.096866e-01 3.830952e-04)	(1.096865e-01 1.096866e-01 2.609577e-05)	(1.575969e-07 6.238800e-08 3.569994e-04)