# Moment      
# CofR        : (5.000000e-01 1.000000e-01 0.000000e+00)
#
# Time        	(total_x total_y total_z)	(pressure_x pressure_y pressure_z)	(viscous_x viscous_y viscous_z)
2.5e-05       	(-9.010919e-06 9.836735e-06 -2.455732e-03)	(-8.471979e-06 7.068810e-06 -2.455867e-03)	(-5.389406e-07 2.767925e-06 1.355115e-07)
5e-05         	(-1.788807e-05 1.921515e-05 -3.824653e-03)	(-1.680977e-05 1.367723e-05 -3.824857e-03)	(-1.078307e-06 5.537918e-06 2.044969e-07)
7.5e-05       	(-2.423551e-05 2.573939e-05 -4.633693e-03)	(-2.260085e-05 1.734422e-05 -4.633959e-03)	(-1.634665e-06 8.395173e-06 2.653111e-07)
0.0001        	(-2.769361e-05 2.893961e-05 -5.033034e-03)	(-2.548936e-05 1.761929e-05 -5.033354e-03)	(-2.204242e-06 1.132031e-05 3.203697e-07)
0.000125      	(-2.891385e-05 2.936704e-05 -5.131342e-03)	(-2.613941e-05 1.511837e-05 -5.131715e-03)	(-2.774439e-06 1.424867e-05 3.729315e-07)
0.00015       	(-2.779088e-05 2.685157e-05 -5.072489e-03)	(-2.445908e-05 9.740377e-06 -5.072912e-03)	(-3.331800e-06 1.711119e-05 4.231034e-07)
0.000175      	(-2.627728e-05 2.339315e-05 -5.002301e-03)	(-2.240618e-05 3.512129e-06 -5.002771e-03)	(-3.871101e-06 1.988102e-05 4.697372e-07)
0.0002        	(-2.491519e-05 1.970168e-05 -5.006146e-03)	(-2.051950e-05 -2.873668e-06 -5.006658e-03)	(-4.395688e-06 2.257535e-05 5.118786e-07)
0.000225      	(-2.408565e-05 1.635747e-05 -5.120918e-03)	(-1.917185e-05 -8.878986e-06 -5.121467e-03)	(-4.913800e-06 2.523646e-05 5.492671e-07)
0.00025       	(-2.340942e-05 1.311117e-05 -5.298491e-03)	(-1.797283e-05 -1.481041e-05 -5.299073e-03)	(-5.436587e-06 2.792158e-05 5.823175e-07)
0.000275      	(-2.649971e-05 1.361776e-05 -5.569201e-03)	(-2.052766e-05 -1.705407e-05 -5.569812e-03)	(-5.972056e-06 3.067183e-05 6.114269e-07)
0.0003        	(-2.864207e-05 1.308796e-05 -5.826656e-03)	(-2.211933e-05 -2.041226e-05 -5.827293e-03)	(-6.522733e-06 3.350022e-05 6.370544e-07)
0.000325      	(-3.031777e-05 1.191779e-05 -6.085973e-03)	(-2.322995e-05 -2.448482e-05 -6.086633e-03)	(-7.087818e-06 3.640262e-05 6.592411e-07)
0.00035       	(-3.230023e-05 1.071878e-05 -6.324075e-03)	(-2.463753e-05 -2.863657e-05 -6.324753e-03)	(-7.662695e-06 3.935535e-05 6.779507e-07)
0.000375      	(-3.348091e-05 8.368573e-06 -6.557951e-03)	(-2.523898e-05 -3.396194e-05 -6.558644e-03)	(-8.241929e-06 4.233051e-05 6.929506e-07)
0.0004        	(-3.383735e-05 4.881454e-06 -6.800166e-03)	(-2.501621e-05 -4.042416e-05 -6.800871e-03)	(-8.821138e-06 4.530561e-05 7.041586e-07)
0.000425      	(-3.282532e-05 -2.679225e-07 -7.014714e-03)	(-2.342843e-05 -4.853092e-05 -7.015426e-03)	(-9.396885e-06 4.826300e-05 7.115334e-07)
0.00045       	(-3.607386e-05 -1.257335e-06 -7.313614e-03)	(-2.610340e-05 -5.246660e-05 -7.314329e-03)	(-9.970462e-06 5.120927e-05 7.152855e-07)
0.000475      	(-3.773180e-05 -3.943264e-06 -7.596585e-03)	(-2.719097e-05 -5.808237e-05 -7.597301e-03)	(-1.054082e-05 5.413911e-05 7.157143e-07)
0.0005        	(-3.947346e-05 -6.466143e-06 -7.876166e-03)	(-2.836120e-05 -6.354065e-05 -7.876879e-03)	(-1.111226e-05 5.707450e-05 7.134010e-07)
0.000525      	(-4.097478e-05 -9.072169e-06 -8.155899e-03)	(-2.929032e-05 -6.908602e-05 -8.156607e-03)	(-1.168446e-05 6.001385e-05 7.085671e-07)
0.00055       	(-4.518978e-05 -8.775077e-06 -8.465988e-03)	(-3.292438e-05 -7.177324e-05 -8.466690e-03)	(-1.226540e-05 6.299816e-05 7.020722e-07)
0.000575      	(-4.471546e-05 -1.302902e-05 -8.706957e-03)	(-3.186706e-05 -7.902207e-05 -8.707651e-03)	(-1.284839e-05 6.599304e-05 6.937704e-07)
0.0006        	(-4.670058e-05 -1.461083e-05 -8.958768e-03)	(-3.326267e-05 -8.363226e-05 -8.959452e-03)	(-1.343791e-05 6.902143e-05 6.841679e-07)
0.000625      	(-4.902173e-05 -1.556890e-05 -9.246144e-03)	(-3.499098e-05 -8.763588e-05 -9.246818e-03)	(-1.403076e-05 7.206697e-05 6.732072e-07)
0.00065       	(-5.274870e-05 -1.510524e-05 -9.518901e-03)	(-3.811556e-05 -9.026673e-05 -9.519562e-03)	(-1.463314e-05 7.516149e-05 6.616101e-07)
0.000675      	(-5.602128e-05 -1.484603e-05 -9.806009e-03)	(-4.078432e-05 -9.310948e-05 -9.806658e-03)	(-1.523696e-05 7.826345e-05 6.489514e-07)
0.0007        	(-5.739983e-05 -1.654713e-05 -1.007636e-02)	(-4.155740e-05 -9.792107e-05 -1.007699e-02)	(-1.584243e-05 8.137393e-05 6.354230e-07)
0.000725      	(-6.237623e-05 -1.451354e-05 -1.038434e-02)	(-4.592453e-05 -9.901748e-05 -1.038496e-02)	(-1.645170e-05 8.450394e-05 6.212855e-07)
0.00075       	(-6.466130e-05 -1.503844e-05 -1.067556e-02)	(-4.759210e-05 -1.027147e-04 -1.067616e-02)	(-1.706920e-05 8.767630e-05 6.070552e-07)
0.000775      	(-6.841420e-05 -1.406782e-05 -1.098211e-02)	(-5.073206e-05 -1.048931e-04 -1.098270e-02)	(-1.768214e-05 9.082530e-05 5.919543e-07)
0.0008        	(-7.049564e-05 -1.451111e-05 -1.129003e-02)	(-5.219471e-05 -1.085155e-04 -1.129061e-02)	(-1.830093e-05 9.400434e-05 5.767951e-07)
0.000825      	(-7.147682e-05 -1.602548e-05 -1.157068e-02)	(-5.255027e-05 -1.132440e-04 -1.157124e-02)	(-1.892655e-05 9.721857e-05 5.617563e-07)
0.00085       	(-7.866889e-05 -1.127404e-05 -1.191750e-02)	(-5.912339e-05 -1.116726e-04 -1.191805e-02)	(-1.954550e-05 1.003985e-04 5.460150e-07)
0.000875      	(-8.332499e-05 -8.999147e-06 -1.223523e-02)	(-6.315510e-05 -1.126056e-04 -1.223576e-02)	(-2.016989e-05 1.036065e-04 5.305348e-07)
0.0009        	(-8.438781e-05 -9.978136e-06 -1.253237e-02)	(-6.358493e-05 -1.168368e-04 -1.253289e-02)	(-2.080288e-05 1.068587e-04 5.155609e-07)
0.000925      	(-9.222142e-05 -4.396782e-06 -1.285988e-02)	(-7.078492e-05 -1.145109e-04 -1.286038e-02)	(-2.143649e-05 1.101142e-04 5.005695e-07)
0.00095       	(-9.712808e-05 -1.421382e-06 -1.320171e-02)	(-7.506157e-05 -1.147726e-04 -1.320220e-02)	(-2.206651e-05 1.133512e-04 4.854090e-07)
0.000975      	(-1.018692e-04 1.652186e-06 -1.354379e-02)	(-7.916880e-05 -1.149560e-04 -1.354426e-02)	(-2.270040e-05 1.166082e-04 4.706063e-07)
0.001         	(-1.064691e-04 4.624484e-06 -1.386973e-02)	(-8.313495e-05 -1.152403e-04 -1.387019e-02)	(-2.333419e-05 1.198648e-04 4.559271e-07)
0.001025      	(-1.120873e-04 8.618240e-06 -1.421752e-02)	(-8.813163e-05 -1.144398e-04 -1.421796e-02)	(-2.395564e-05 1.230580e-04 4.408014e-07)
0.00105       	(-1.162104e-04 1.131645e-05 -1.455586e-02)	(-9.161935e-05 -1.150068e-04 -1.455629e-02)	(-2.459110e-05 1.263233e-04 4.266992e-07)
0.001075      	(-1.197222e-04 1.356873e-05 -1.488322e-02)	(-9.448854e-05 -1.160564e-04 -1.488363e-02)	(-2.523368e-05 1.296252e-04 4.132054e-07)
0.0011        	(-1.241567e-04 1.669221e-05 -1.522786e-02)	(-9.828374e-05 -1.162178e-04 -1.522826e-02)	(-2.587293e-05 1.329100e-04 3.998879e-07)
0.001125      	(-1.309611e-04 2.239459e-05 -1.558451e-02)	(-1.044529e-04 -1.137795e-04 -1.558490e-02)	(-2.650813e-05 1.361740e-04 3.866894e-07)
0.00115       	(-1.381386e-04 2.866693e-05 -1.594569e-02)	(-1.110001e-04 -1.107463e-04 -1.594607e-02)	(-2.713848e-05 1.394132e-04 3.734153e-07)
0.001175      	(-1.434382e-04 3.279257e-05 -1.628026e-02)	(-1.156642e-04 -1.098864e-04 -1.628062e-02)	(-2.777400e-05 1.426790e-04 3.607468e-07)
0.0012        	(-1.485055e-04 3.721029e-05 -1.663842e-02)	(-1.200859e-04 -1.087865e-04 -1.663877e-02)	(-2.841963e-05 1.459968e-04 3.488743e-07)
0.001225      	(-1.587823e-04 4.690397e-05 -1.705212e-02)	(-1.297257e-04 -1.023664e-04 -1.705245e-02)	(-2.905664e-05 1.492703e-04 3.370446e-07)
0.00125       	(-1.619272e-04 4.937144e-05 -1.736135e-02)	(-1.322372e-04 -1.031538e-04 -1.736167e-02)	(-2.969000e-05 1.525252e-04 3.256318e-07)
0.001275      	(-1.682367e-04 5.539668e-05 -1.771190e-02)	(-1.379035e-04 -1.004343e-04 -1.771222e-02)	(-3.033325e-05 1.558309e-04 3.149981e-07)
0.0013        	(-1.719713e-04 5.901700e-05 -1.803826e-02)	(-1.409891e-04 -1.001489e-04 -1.803857e-02)	(-3.098219e-05 1.591659e-04 3.050945e-07)
0.001325      	(-1.759860e-04 6.283147e-05 -1.836470e-02)	(-1.443642e-04 -9.962127e-05 -1.836499e-02)	(-3.162176e-05 1.624527e-04 2.952292e-07)
0.00135       	(-1.896803e-04 7.668185e-05 -1.884579e-02)	(-1.574338e-04 -8.898187e-05 -1.884607e-02)	(-3.224655e-05 1.656637e-04 2.852640e-07)
0.001375      	(-2.010459e-04 8.851894e-05 -1.926571e-02)	(-1.681656e-04 -8.040192e-05 -1.926598e-02)	(-3.288032e-05 1.689209e-04 2.765315e-07)
0.0014        	(-2.085330e-04 9.585161e-05 -1.962885e-02)	(-1.750134e-04 -7.635485e-05 -1.962912e-02)	(-3.351961e-05 1.722065e-04 2.686730e-07)
0.001425      	(-2.114766e-04 9.926262e-05 -1.993358e-02)	(-1.772949e-04 -7.634657e-05 -1.993384e-02)	(-3.418170e-05 1.756092e-04 2.622793e-07)
0.00145       	(-2.281522e-04 1.162124e-04 -2.040129e-02)	(-1.933515e-04 -6.257832e-05 -2.040154e-02)	(-3.480071e-05 1.787907e-04 2.546915e-07)
0.001475      	(-2.208486e-04 1.097034e-04 -2.059795e-02)	(-1.853894e-04 -7.247170e-05 -2.059820e-02)	(-3.545920e-05 1.821751e-04 2.494998e-07)
0.0015        	(-2.422981e-04 1.324550e-04 -2.117762e-02)	(-2.062042e-04 -5.298189e-05 -2.117786e-02)	(-3.609385e-05 1.854369e-04 2.435037e-07)
0.001525      	(-2.433058e-04 1.338333e-04 -2.144527e-02)	(-2.065788e-04 -5.485766e-05 -2.144551e-02)	(-3.672697e-05 1.886910e-04 2.385730e-07)
0.00155       	(-2.501301e-04 1.420350e-04 -2.183508e-02)	(-2.127610e-04 -4.995655e-05 -2.183532e-02)	(-3.736915e-05 1.919916e-04 2.343117e-07)
0.001575      	(-2.585203e-04 1.509792e-04 -2.215906e-02)	(-2.205399e-04 -4.415467e-05 -2.215929e-02)	(-3.798049e-05 1.951338e-04 2.296502e-07)
0.0016        	(-2.720388e-04 1.657320e-04 -2.260328e-02)	(-2.334153e-04 -3.270667e-05 -2.260351e-02)	(-3.862349e-05 1.984386e-04 2.265204e-07)
0.001625      	(-2.827118e-04 1.771873e-04 -2.297007e-02)	(-2.434388e-04 -2.459005e-05 -2.297029e-02)	(-3.927306e-05 2.017773e-04 2.243719e-07)
0.00165       	(-2.890556e-04 1.851475e-04 -2.334928e-02)	(-2.491454e-04 -1.990466e-05 -2.334950e-02)	(-3.991019e-05 2.050521e-04 2.223101e-07)
0.001675      	(-3.001855e-04 1.980056e-04 -2.377339e-02)	(-2.596405e-04 -1.030913e-05 -2.377361e-02)	(-4.054494e-05 2.083147e-04 2.206664e-07)
0.0017        	(-3.045082e-04 2.037046e-04 -2.412764e-02)	(-2.633294e-04 -7.868152e-06 -2.412786e-02)	(-4.117880e-05 2.115728e-04 2.195788e-07)
0.001725      	(-3.159753e-04 2.165523e-04 -2.450312e-02)	(-2.741708e-04 1.763138e-06 -2.450334e-02)	(-4.180456e-05 2.147892e-04 2.186783e-07)
0.00175       	(-3.260881e-04 2.282976e-04 -2.489659e-02)	(-2.836670e-04 1.033933e-05 -2.489681e-02)	(-4.242109e-05 2.179583e-04 2.179691e-07)
0.001775      	(-3.347457e-04 2.387064e-04 -2.525353e-02)	(-2.916828e-04 1.744958e-05 -2.525375e-02)	(-4.306282e-05 2.212568e-04 2.184261e-07)
0.0018        	(-3.483808e-04 2.537225e-04 -2.567937e-02)	(-3.047098e-04 2.933962e-05 -2.567958e-02)	(-4.367099e-05 2.243829e-04 2.183040e-07)
0.001825      	(-3.580590e-04 2.650768e-04 -2.605450e-02)	(-3.137620e-04 3.747609e-05 -2.605472e-02)	(-4.429700e-05 2.276007e-04 2.191598e-07)
0.00185       	(-3.701537e-04 2.791780e-04 -2.647888e-02)	(-3.252169e-04 4.828868e-05 -2.647910e-02)	(-4.493679e-05 2.308893e-04 2.207176e-07)
0.001875      	(-3.776225e-04 2.883607e-04 -2.683230e-02)	(-3.320376e-04 5.414013e-05 -2.683252e-02)	(-4.558489e-05 2.342205e-04 2.229576e-07)
0.0019        	(-3.915974e-04 3.047343e-04 -2.724148e-02)	(-3.453998e-04 6.736417e-05 -2.724171e-02)	(-4.619762e-05 2.373702e-04 2.245060e-07)
0.001925      	(-4.012624e-04 3.164918e-04 -2.764745e-02)	(-3.544702e-04 7.606482e-05 -2.764767e-02)	(-4.679227e-05 2.404270e-04 2.259996e-07)
0.00195       	(-4.144210e-04 3.311875e-04 -2.809167e-02)	(-3.669826e-04 8.743916e-05 -2.809190e-02)	(-4.743843e-05 2.437483e-04 2.292054e-07)
0.001975      	(-4.236956e-04 3.425817e-04 -2.844358e-02)	(-3.756192e-04 9.555384e-05 -2.844382e-02)	(-4.807647e-05 2.470279e-04 2.324537e-07)
0.002         	(-4.292088e-04 3.510781e-04 -2.872853e-02)	(-3.805529e-04 1.010714e-04 -2.872876e-02)	(-4.865592e-05 2.500067e-04 2.346782e-07)
0.002025      	(-4.442607e-04 3.683606e-04 -2.916432e-02)	(-3.949920e-04 1.152042e-04 -2.916455e-02)	(-4.926869e-05 2.531564e-04 2.375912e-07)
0.00205       	(-4.565522e-04 3.830128e-04 -2.955958e-02)	(-4.066362e-04 1.265292e-04 -2.955983e-02)	(-4.991599e-05 2.564836e-04 2.415971e-07)
0.002075      	(-4.690062e-04 3.973312e-04 -2.994675e-02)	(-4.184889e-04 1.377565e-04 -2.994700e-02)	(-5.051732e-05 2.595747e-04 2.448436e-07)
0.0021        	(-4.808497e-04 4.116022e-04 -3.036203e-02)	(-4.297273e-04 1.489174e-04 -3.036227e-02)	(-5.112237e-05 2.626848e-04 2.483556e-07)
0.002125      	(-4.948558e-04 4.280561e-04 -3.078281e-02)	(-4.431195e-04 1.622159e-04 -3.078306e-02)	(-5.173623e-05 2.658402e-04 2.522546e-07)
0.00215       	(-5.072112e-04 4.428431e-04 -3.117426e-02)	(-4.548673e-04 1.738793e-04 -3.117451e-02)	(-5.234389e-05 2.689638e-04 2.563012e-07)
0.002175      	(-5.166582e-04 4.547585e-04 -3.154751e-02)	(-4.637071e-04 1.826734e-04 -3.154777e-02)	(-5.295110e-05 2.720851e-04 2.604972e-07)
0.0022        	(-5.282808e-04 4.690402e-04 -3.193232e-02)	(-4.747128e-04 1.937839e-04 -3.193259e-02)	(-5.356804e-05 2.752563e-04 2.649522e-07)
0.002225      	(-5.435944e-04 4.866467e-04 -3.230879e-02)	(-4.893848e-04 2.080931e-04 -3.230906e-02)	(-5.420954e-05 2.785536e-04 2.700374e-07)
0.00225       	(-5.575368e-04 5.028068e-04 -3.270891e-02)	(-5.027442e-04 2.212559e-04 -3.270918e-02)	(-5.479262e-05 2.815509e-04 2.740042e-07)
0.002275      	(-5.688254e-04 5.169349e-04 -3.307955e-02)	(-5.134081e-04 2.321733e-04 -3.307983e-02)	(-5.541727e-05 2.847616e-04 2.787951e-07)
0.0023        	(-5.936131e-04 5.448975e-04 -3.363584e-02)	(-5.375933e-04 2.570384e-04 -3.363613e-02)	(-5.601987e-05 2.878591e-04 2.831643e-07)
0.002325      	(-5.963237e-04 5.489267e-04 -3.386902e-02)	(-5.397329e-04 2.581325e-04 -3.386931e-02)	(-5.659081e-05 2.907941e-04 2.874492e-07)
0.00235       	(-6.000758e-04 5.559831e-04 -3.412155e-02)	(-5.428727e-04 2.620418e-04 -3.412184e-02)	(-5.720309e-05 2.939413e-04 2.921452e-07)
0.002375      	(-6.199761e-04 5.794337e-04 -3.462053e-02)	(-5.621649e-04 2.823668e-04 -3.462083e-02)	(-5.781119e-05 2.970669e-04 2.964857e-07)
0.0024        	(-6.377034e-04 5.994818e-04 -3.507960e-02)	(-5.793368e-04 2.995600e-04 -3.507990e-02)	(-5.836657e-05 2.999219e-04 3.004394e-07)
0.002425      	(-6.513679e-04 6.150827e-04 -3.544555e-02)	(-5.924142e-04 3.121430e-04 -3.544586e-02)	(-5.895368e-05 3.029398e-04 3.050134e-07)
0.00245       	(-6.657052e-04 6.334973e-04 -3.582248e-02)	(-6.061143e-04 3.272824e-04 -3.582279e-02)	(-5.959089e-05 3.062149e-04 3.100741e-07)
0.002475      	(-6.819432e-04 6.515177e-04 -3.626183e-02)	(-6.217788e-04 3.423545e-04 -3.626214e-02)	(-6.016445e-05 3.091631e-04 3.142488e-07)
0.0025        	(-6.872420e-04 6.591483e-04 -3.650856e-02)	(-6.264901e-04 3.469655e-04 -3.650888e-02)	(-6.075191e-05 3.121828e-04 3.190263e-07)
0.002525      	(-7.059049e-04 6.807212e-04 -3.697813e-02)	(-6.446031e-04 3.657118e-04 -3.697846e-02)	(-6.130178e-05 3.150093e-04 3.226785e-07)
0.00255       	(-7.179901e-04 6.956418e-04 -3.732869e-02)	(-6.560658e-04 3.774328e-04 -3.732901e-02)	(-6.192430e-05 3.182089e-04 3.275682e-07)
0.002575      	(-7.391705e-04 7.198428e-04 -3.781182e-02)	(-6.766743e-04 3.986946e-04 -3.781215e-02)	(-6.249613e-05 3.211482e-04 3.316616e-07)
0.0026        	(-7.585645e-04 7.411150e-04 -3.817501e-02)	(-6.954634e-04 4.168576e-04 -3.817535e-02)	(-6.310106e-05 3.242574e-04 3.362566e-07)
0.002625      	(-7.742974e-04 7.601328e-04 -3.862828e-02)	(-7.106705e-04 4.331723e-04 -3.862861e-02)	(-6.362688e-05 3.269605e-04 3.397056e-07)
0.00265       	(-7.849283e-04 7.737376e-04 -3.897164e-02)	(-7.206859e-04 4.436132e-04 -3.897198e-02)	(-6.424245e-05 3.301243e-04 3.445517e-07)
0.002675      	(-7.954821e-04 7.875510e-04 -3.929296e-02)	(-7.306723e-04 4.545103e-04 -3.929331e-02)	(-6.480983e-05 3.330407e-04 3.485626e-07)
0.0027        	(-8.034710e-04 7.989090e-04 -3.964861e-02)	(-7.381173e-04 4.630725e-04 -3.964897e-02)	(-6.535372e-05 3.358365e-04 3.521871e-07)
0.002725      	(-8.311374e-04 8.275071e-04 -4.009268e-02)	(-7.651924e-04 4.886317e-04 -4.009304e-02)	(-6.594500e-05 3.388754e-04 3.563428e-07)
0.00275       	(-8.464786e-04 8.459217e-04 -4.045607e-02)	(-7.799827e-04 5.042142e-04 -4.045643e-02)	(-6.649596e-05 3.417074e-04 3.599010e-07)
0.002775      	(-8.592673e-04 8.614952e-04 -4.078807e-02)	(-7.922421e-04 5.170677e-04 -4.078843e-02)	(-6.702514e-05 3.444275e-04 3.629616e-07)
0.0028        	(-8.779454e-04 8.827688e-04 -4.123926e-02)	(-8.103948e-04 5.356405e-04 -4.123962e-02)	(-6.755058e-05 3.471284e-04 3.657970e-07)
0.002825      	(-8.884916e-04 8.961298e-04 -4.156694e-02)	(-8.203907e-04 5.461728e-04 -4.156731e-02)	(-6.810089e-05 3.499570e-04 3.691726e-07)
0.00285       	(-9.092137e-04 9.193573e-04 -4.200784e-02)	(-8.405664e-04 5.665915e-04 -4.200821e-02)	(-6.864738e-05 3.527658e-04 3.722866e-07)
0.002875      	(-9.286748e-04 9.409563e-04 -4.241542e-02)	(-8.594738e-04 5.853453e-04 -4.241579e-02)	(-6.920093e-05 3.556110e-04 3.757006e-07)
0.0029        	(-9.373432e-04 9.530478e-04 -4.276630e-02)	(-8.676164e-04 5.947339e-04 -4.276668e-02)	(-6.972676e-05 3.583139e-04 3.788691e-07)
0.002925      	(-9.577476e-04 9.763087e-04 -4.318495e-02)	(-8.875329e-04 6.154867e-04 -4.318533e-02)	(-7.021469e-05 3.608220e-04 3.813968e-07)
0.00295       	(-9.758745e-04 9.975278e-04 -4.354108e-02)	(-9.050893e-04 6.337736e-04 -4.354147e-02)	(-7.078521e-05 3.637542e-04 3.848641e-07)
0.002975      	(-9.861373e-04 1.009491e-03 -4.385029e-02)	(-9.148423e-04 6.431167e-04 -4.385068e-02)	(-7.129495e-05 3.663744e-04 3.875109e-07)
0.003         	(-1.005210e-03 1.029842e-03 -4.427670e-02)	(-9.334231e-04 6.609389e-04 -4.427709e-02)	(-7.178693e-05 3.689032e-04 3.899801e-07)
0.003025      	(-1.025772e-03 1.087124e-03 -4.399337e-02)	(-9.536868e-04 7.166885e-04 -4.399374e-02)	(-7.208492e-05 3.704357e-04 3.743331e-07)
0.00305       	(-1.050326e-03 1.161371e-03 -4.343755e-02)	(-9.779762e-04 7.895733e-04 -4.343791e-02)	(-7.234974e-05 3.717977e-04 3.580979e-07)
0.003075      	(-1.074252e-03 1.244495e-03 -4.258482e-02)	(-1.001908e-03 8.727241e-04 -4.258516e-02)	(-7.234409e-05 3.717705e-04 3.398896e-07)
0.0031        	(-1.097702e-03 1.328510e-03 -4.165760e-02)	(-1.025394e-03 9.569209e-04 -4.165793e-02)	(-7.230849e-05 3.715891e-04 3.229117e-07)
0.003125      	(-1.116937e-03 1.373660e-03 -4.142189e-02)	(-1.044750e-03 1.002694e-03 -4.142221e-02)	(-7.218692e-05 3.709662e-04 3.230949e-07)
0.00315       	(-1.133696e-03 1.398987e-03 -4.148300e-02)	(-1.061658e-03 1.028783e-03 -4.148333e-02)	(-7.203835e-05 3.702045e-04 3.249729e-07)
0.003175      	(-1.154350e-03 1.419984e-03 -4.181801e-02)	(-1.082443e-03 1.050457e-03 -4.181834e-02)	(-7.190623e-05 3.695270e-04 3.270783e-07)
0.0032        	(-1.169124e-03 1.431561e-03 -4.217961e-02)	(-1.097368e-03 1.062806e-03 -4.217994e-02)	(-7.175578e-05 3.687554e-04 3.279268e-07)
0.003225      	(-1.184616e-03 1.444160e-03 -4.253915e-02)	(-1.113015e-03 1.076199e-03 -4.253948e-02)	(-7.160095e-05 3.679612e-04 3.283879e-07)
0.00325       	(-1.192954e-03 1.452077e-03 -4.278641e-02)	(-1.121500e-03 1.084870e-03 -4.278674e-02)	(-7.145380e-05 3.672063e-04 3.290822e-07)
0.003275      	(-1.210424e-03 1.471950e-03 -4.300743e-02)	(-1.139099e-03 1.105405e-03 -4.300776e-02)	(-7.132493e-05 3.665451e-04 3.307188e-07)
0.0033        	(-1.231673e-03 1.495408e-03 -4.318518e-02)	(-1.160551e-03 1.129907e-03 -4.318552e-02)	(-7.112167e-05 3.655018e-04 3.326146e-07)
0.003325      	(-1.247703e-03 1.515897e-03 -4.329162e-02)	(-1.176782e-03 1.151427e-03 -4.329196e-02)	(-7.092046e-05 3.644691e-04 3.354723e-07)
0.00335       	(-1.264547e-03 1.535819e-03 -4.341326e-02)	(-1.193837e-03 1.172428e-03 -4.341360e-02)	(-7.071036e-05 3.633906e-04 3.387999e-07)
0.003375      	(-1.283362e-03 1.556917e-03 -4.351878e-02)	(-1.212816e-03 1.194372e-03 -4.351912e-02)	(-7.054564e-05 3.625451e-04 3.430034e-07)
0.0034        	(-1.294068e-03 1.570149e-03 -4.366191e-02)	(-1.223838e-03 1.209223e-03 -4.366225e-02)	(-7.023043e-05 3.609267e-04 3.459286e-07)
0.003425      	(-1.310679e-03 1.588714e-03 -4.380385e-02)	(-1.240691e-03 1.229035e-03 -4.380420e-02)	(-6.998740e-05 3.596790e-04 3.499448e-07)
0.00345       	(-1.326232e-03 1.606912e-03 -4.389458e-02)	(-1.256469e-03 1.248384e-03 -4.389493e-02)	(-6.976316e-05 3.585275e-04 3.547383e-07)
0.003475      	(-1.336054e-03 1.617904e-03 -4.398867e-02)	(-1.266627e-03 1.261104e-03 -4.398903e-02)	(-6.942670e-05 3.567999e-04 3.585642e-07)
0.0035        	(-1.351629e-03 1.635861e-03 -4.403752e-02)	(-1.282427e-03 1.280210e-03 -4.403789e-02)	(-6.920289e-05 3.556505e-04 3.639226e-07)
0.003525      	(-1.367945e-03 1.652322e-03 -4.413077e-02)	(-1.299076e-03 1.298389e-03 -4.413114e-02)	(-6.886846e-05 3.539331e-04 3.683538e-07)
0.00355       	(-1.386209e-03 1.672279e-03 -4.426747e-02)	(-1.317660e-03 1.319985e-03 -4.426784e-02)	(-6.854929e-05 3.522939e-04 3.729525e-07)
0.003575      	(-1.401121e-03 1.687547e-03 -4.428938e-02)	(-1.332835e-03 1.336609e-03 -4.428976e-02)	(-6.828528e-05 3.509381e-04 3.781719e-07)
0.0036        	(-1.417430e-03 1.704173e-03 -4.434406e-02)	(-1.349489e-03 1.355003e-03 -4.434445e-02)	(-6.794104e-05 3.491701e-04 3.814871e-07)
0.003625      	(-1.431923e-03 1.718770e-03 -4.446549e-02)	(-1.364315e-03 1.371313e-03 -4.446587e-02)	(-6.760738e-05 3.474564e-04 3.843794e-07)
0.00365       	(-1.443614e-03 1.729685e-03 -4.454185e-02)	(-1.376387e-03 1.384182e-03 -4.454223e-02)	(-6.722693e-05 3.455025e-04 3.858957e-07)
0.003675      	(-1.460668e-03 1.745613e-03 -4.466770e-02)	(-1.393798e-03 1.401948e-03 -4.466808e-02)	(-6.686914e-05 3.436649e-04 3.867820e-07)
0.0037        	(-1.475371e-03 1.760215e-03 -4.472935e-02)	(-1.408915e-03 1.418672e-03 -4.472974e-02)	(-6.645592e-05 3.415427e-04 3.857965e-07)
0.003725      	(-1.488789e-03 1.772885e-03 -4.478242e-02)	(-1.422712e-03 1.433288e-03 -4.478281e-02)	(-6.607694e-05 3.395962e-04 3.841958e-07)
0.00375       	(-1.509244e-03 1.792573e-03 -4.491795e-02)	(-1.443563e-03 1.455012e-03 -4.491834e-02)	(-6.568078e-05 3.375615e-04 3.812995e-07)
0.003775      	(-1.516023e-03 1.797708e-03 -4.488703e-02)	(-1.450768e-03 1.462335e-03 -4.488741e-02)	(-6.525462e-05 3.353727e-04 3.772466e-07)
0.0038        	(-1.531485e-03 1.811556e-03 -4.495809e-02)	(-1.466618e-03 1.478173e-03 -4.495846e-02)	(-6.486710e-05 3.333823e-04 3.724203e-07)
0.003825      	(-1.542527e-03 1.821502e-03 -4.495656e-02)	(-1.478078e-03 1.490263e-03 -4.495692e-02)	(-6.444988e-05 3.312393e-04 3.664931e-07)
0.00385       	(-1.557187e-03 1.834269e-03 -4.503708e-02)	(-1.493206e-03 1.505438e-03 -4.503744e-02)	(-6.398095e-05 3.288307e-04 3.594680e-07)
0.003875      	(-1.570855e-03 1.846296e-03 -4.504418e-02)	(-1.507331e-03 1.519813e-03 -4.504453e-02)	(-6.352380e-05 3.264826e-04 3.522080e-07)
0.0039        	(-1.587648e-03 1.860703e-03 -4.508943e-02)	(-1.524546e-03 1.536386e-03 -4.508977e-02)	(-6.310223e-05 3.243173e-04 3.449687e-07)
0.003925      	(-1.593014e-03 1.865043e-03 -4.503289e-02)	(-1.530372e-03 1.543086e-03 -4.503322e-02)	(-6.264278e-05 3.219574e-04 3.365100e-07)
0.00395       	(-1.613514e-03 1.883431e-03 -4.517811e-02)	(-1.551374e-03 1.564057e-03 -4.517844e-02)	(-6.213990e-05 3.193742e-04 3.264029e-07)
0.003975      	(-1.626050e-03 1.895032e-03 -4.517111e-02)	(-1.564343e-03 1.577883e-03 -4.517143e-02)	(-6.170665e-05 3.171488e-04 3.174039e-07)
0.004         	(-1.643355e-03 1.910177e-03 -4.526422e-02)	(-1.582121e-03 1.595456e-03 -4.526452e-02)	(-6.123398e-05 3.147208e-04 3.075187e-07)
0.004025      	(-1.656862e-03 1.921290e-03 -4.527437e-02)	(-1.596121e-03 1.609101e-03 -4.527466e-02)	(-6.074108e-05 3.121890e-04 2.970923e-07)
0.00405       	(-1.665303e-03 1.927337e-03 -4.525028e-02)	(-1.605040e-03 1.617602e-03 -4.525057e-02)	(-6.026334e-05 3.097349e-04 2.867239e-07)
0.004075      	(-1.683426e-03 1.943545e-03 -4.524915e-02)	(-1.623664e-03 1.636386e-03 -4.524943e-02)	(-5.976187e-05 3.071590e-04 2.757874e-07)
0.0041        	(-1.692098e-03 1.950313e-03 -4.524163e-02)	(-1.632844e-03 1.645763e-03 -4.524189e-02)	(-5.925389e-05 3.045496e-04 2.647690e-07)
0.004125      	(-1.702472e-03 1.958177e-03 -4.522742e-02)	(-1.643728e-03 1.656244e-03 -4.522768e-02)	(-5.874450e-05 3.019329e-04 2.538219e-07)
0.00415       	(-1.715677e-03 1.968821e-03 -4.524798e-02)	(-1.657417e-03 1.669377e-03 -4.524823e-02)	(-5.826013e-05 2.994446e-04 2.439032e-07)
0.004175      	(-1.728883e-03 1.980171e-03 -4.521187e-02)	(-1.671135e-03 1.683360e-03 -4.521210e-02)	(-5.774750e-05 2.968113e-04 2.332320e-07)
0.0042        	(-1.737976e-03 1.986216e-03 -4.518501e-02)	(-1.680735e-03 1.692008e-03 -4.518523e-02)	(-5.724068e-05 2.942077e-04 2.231825e-07)
0.004225      	(-1.756200e-03 2.002430e-03 -4.525285e-02)	(-1.699489e-03 1.710942e-03 -4.525306e-02)	(-5.671125e-05 2.914880e-04 2.123041e-07)
0.00425       	(-1.769469e-03 2.013951e-03 -4.523060e-02)	(-1.713263e-03 1.725058e-03 -4.523081e-02)	(-5.620610e-05 2.888929e-04 2.029383e-07)
0.004275      	(-1.782128e-03 2.023551e-03 -4.522358e-02)	(-1.726459e-03 1.737416e-03 -4.522378e-02)	(-5.566937e-05 2.861357e-04 1.924984e-07)
0.0043        	(-1.790540e-03 2.030274e-03 -4.516047e-02)	(-1.735384e-03 1.746775e-03 -4.516066e-02)	(-5.515603e-05 2.834986e-04 1.836112e-07)
0.004325      	(-1.804431e-03 2.041241e-03 -4.516097e-02)	(-1.749798e-03 1.760427e-03 -4.516114e-02)	(-5.463356e-05 2.808145e-04 1.745802e-07)
0.00435       	(-1.821716e-03 2.055258e-03 -4.519359e-02)	(-1.767617e-03 1.777189e-03 -4.519375e-02)	(-5.409912e-05 2.780689e-04 1.650720e-07)
0.004375      	(-1.830487e-03 2.061960e-03 -4.517946e-02)	(-1.776918e-03 1.786612e-03 -4.517962e-02)	(-5.356945e-05 2.753479e-04 1.563313e-07)
0.0044        	(-1.844206e-03 2.072519e-03 -4.514541e-02)	(-1.791161e-03 1.799866e-03 -4.514556e-02)	(-5.304505e-05 2.726539e-04 1.484330e-07)
0.004425      	(-1.848945e-03 2.075499e-03 -4.504653e-02)	(-1.796434e-03 1.805593e-03 -4.504667e-02)	(-5.251020e-05 2.699062e-04 1.400391e-07)
0.00445       	(-1.862882e-03 2.087853e-03 -4.505832e-02)	(-1.810907e-03 1.820694e-03 -4.505845e-02)	(-5.197551e-05 2.671593e-04 1.315342e-07)
0.004475      	(-1.872559e-03 2.094742e-03 -4.503465e-02)	(-1.821117e-03 1.830324e-03 -4.503478e-02)	(-5.144189e-05 2.644178e-04 1.240422e-07)
0.0045        	(-1.887623e-03 2.107918e-03 -4.501550e-02)	(-1.836718e-03 1.846256e-03 -4.501562e-02)	(-5.090540e-05 2.616616e-04 1.163591e-07)
0.004525      	(-1.902128e-03 2.120303e-03 -4.501089e-02)	(-1.851759e-03 1.861394e-03 -4.501100e-02)	(-5.036956e-05 2.589086e-04 1.082649e-07)
0.00455       	(-1.916404e-03 2.132205e-03 -4.502644e-02)	(-1.866572e-03 1.876060e-03 -4.502654e-02)	(-4.983173e-05 2.561454e-04 1.008775e-07)
0.004575      	(-1.923529e-03 2.136770e-03 -4.492413e-02)	(-1.874237e-03 1.883399e-03 -4.492423e-02)	(-4.929174e-05 2.533711e-04 9.382466e-08)
0.0046        	(-1.933724e-03 2.144032e-03 -4.487866e-02)	(-1.884967e-03 1.893405e-03 -4.487874e-02)	(-4.875760e-05 2.506268e-04 8.635040e-08)
0.004625      	(-1.947714e-03 2.156481e-03 -4.490757e-02)	(-1.899502e-03 1.908659e-03 -4.490765e-02)	(-4.821164e-05 2.478217e-04 7.973701e-08)
0.00465       	(-1.954752e-03 2.160644e-03 -4.480447e-02)	(-1.907072e-03 1.915553e-03 -4.480454e-02)	(-4.768027e-05 2.450915e-04 7.269546e-08)
0.004675      	(-1.965102e-03 2.169376e-03 -4.474416e-02)	(-1.917970e-03 1.927102e-03 -4.474422e-02)	(-4.713186e-05 2.422738e-04 6.622137e-08)
0.0047        	(-1.979487e-03 2.180936e-03 -4.474512e-02)	(-1.932885e-03 1.941386e-03 -4.474518e-02)	(-4.660174e-05 2.395499e-04 5.928287e-08)
0.004725      	(-1.992232e-03 2.191525e-03 -4.472497e-02)	(-1.946172e-03 1.954759e-03 -4.472502e-02)	(-4.605999e-05 2.367663e-04 5.287073e-08)
0.00475       	(-2.000067e-03 2.196363e-03 -4.469591e-02)	(-1.954544e-03 1.962358e-03 -4.469595e-02)	(-4.552270e-05 2.340056e-04 4.678640e-08)
0.004775      	(-2.010680e-03 2.205465e-03 -4.466868e-02)	(-1.965688e-03 1.974190e-03 -4.466872e-02)	(-4.499119e-05 2.312746e-04 4.065917e-08)
0.0048        	(-2.021968e-03 2.214311e-03 -4.463433e-02)	(-1.977515e-03 1.985801e-03 -4.463437e-02)	(-4.445307e-05 2.285095e-04 3.498496e-08)
0.004825      	(-2.033614e-03 2.223977e-03 -4.458600e-02)	(-1.989710e-03 1.998288e-03 -4.458603e-02)	(-4.390399e-05 2.256881e-04 2.949526e-08)
0.00485       	(-2.041376e-03 2.229869e-03 -4.454883e-02)	(-1.997998e-03 2.006880e-03 -4.454885e-02)	(-4.337882e-05 2.229896e-04 2.411535e-08)
0.004875      	(-2.054441e-03 2.241213e-03 -4.450442e-02)	(-2.011599e-03 2.020984e-03 -4.450444e-02)	(-4.284170e-05 2.202295e-04 1.903354e-08)
0.0049        	(-2.065764e-03 2.250126e-03 -4.446173e-02)	(-2.023457e-03 2.032641e-03 -4.446175e-02)	(-4.230741e-05 2.174841e-04 1.422002e-08)
0.004925      	(-2.071758e-03 2.254411e-03 -4.436276e-02)	(-2.029997e-03 2.039735e-03 -4.436277e-02)	(-4.176094e-05 2.146761e-04 9.574305e-09)
0.00495       	(-2.088249e-03 2.268855e-03 -4.438130e-02)	(-2.047019e-03 2.056906e-03 -4.438130e-02)	(-4.123040e-05 2.119497e-04 5.011088e-09)
0.004975      	(-2.100619e-03 2.279172e-03 -4.440418e-02)	(-2.059901e-03 2.069855e-03 -4.440418e-02)	(-4.071797e-05 2.093166e-04 9.786842e-10)
0.005         	(-2.107809e-03 2.283689e-03 -4.432150e-02)	(-2.067624e-03 2.077113e-03 -4.432150e-02)	(-4.018454e-05 2.065756e-04 -2.581218e-09)
0.005025      	(-2.117193e-03 2.290753e-03 -4.428094e-02)	(-2.077550e-03 2.086958e-03 -4.428094e-02)	(-3.964356e-05 2.037958e-04 -5.955831e-09)
0.00505       	(-2.126980e-03 2.298707e-03 -4.421770e-02)	(-2.087843e-03 2.097514e-03 -4.421769e-02)	(-3.913704e-05 2.011931e-04 -8.681687e-09)
0.005075      	(-2.136238e-03 2.305777e-03 -4.418878e-02)	(-2.097626e-03 2.107279e-03 -4.418877e-02)	(-3.861261e-05 1.984983e-04 -1.130863e-08)
0.0051        	(-2.146675e-03 2.314365e-03 -4.414566e-02)	(-2.108585e-03 2.118555e-03 -4.414565e-02)	(-3.808937e-05 1.958098e-04 -1.355583e-08)
0.005125      	(-2.154765e-03 2.320516e-03 -4.408523e-02)	(-2.117189e-03 2.127342e-03 -4.408522e-02)	(-3.757632e-05 1.931736e-04 -1.531690e-08)
0.00515       	(-2.165406e-03 2.329007e-03 -4.405854e-02)	(-2.128368e-03 2.138599e-03 -4.405852e-02)	(-3.703807e-05 1.904080e-04 -1.685809e-08)
0.005175      	(-2.176657e-03 2.338429e-03 -4.401288e-02)	(-2.140127e-03 2.150633e-03 -4.401286e-02)	(-3.652972e-05 1.877960e-04 -1.758733e-08)