# Time forceX forceY forceZ normalForce
5e-05 0.00568419 0.00568419 1.12804e-05 -0.00893402
5e-05 0.00568419 0.00568419 1.12804e-05 -0.00893402
0.0001 0.00984268 0.00984268 2.25233e-05 -0.0154664
0.0001 0.00984268 0.00984268 2.25233e-05 -0.0154664
0.00015 0.0126741 0.0126741 3.38572e-05 -0.0199136
0.00015 0.0126741 0.0126741 3.38572e-05 -0.0199136
0.0002 0.014328 0.014328 4.50881e-05 -0.022511
0.0002 0.014328 0.014328 4.50881e-05 -0.022511
0.00025 0.0151947 0.0151947 5.62368e-05 -0.0238715
0.00025 0.0151947 0.0151947 5.62368e-05 -0.0238715
0.0003 0.0156924 0.0156924 6.74524e-05 -0.0246521
0.0003 0.0156924 0.0156924 6.74524e-05 -0.0246521
0.00035 0.0161546 0.0161546 7.88509e-05 -0.0253767
0.00035 0.0161546 0.0161546 7.88509e-05 -0.0253767
0.0004 0.0167939 0.0167939 9.04597e-05 -0.0263795
0.0004 0.0167939 0.0167939 9.04597e-05 -0.0263795
0.00045 0.0177045 0.0177045 0.00010225 -0.0278086
0.00045 0.0177045 0.0177045 0.00010225 -0.0278086
0.0005 0.0188854 0.0188854 0.000114184 -0.0296625
0.0005 0.0188854 0.0188854 0.000114184 -0.0296625
0.00055 0.0202758 0.0202758 0.000126242 -0.0318456
0.00055 0.0202758 0.0202758 0.000126242 -0.0318456
0.0006 0.0217924 0.0217924 0.000138419 -0.0342273
0.0006 0.0217924 0.0217924 0.000138419 -0.0342273
0.00065 0.0233586 0.0233586 0.000150717 -0.0366868
0.00065 0.0233586 0.0233586 0.000150717 -0.0366868
0.0007 0.0249208 0.0249208 0.000163133 -0.0391402
0.0007 0.0249208 0.0249208 0.000163133 -0.0391402
0.00075 0.0264526 0.0264526 0.000175661 -0.0415458
0.00075 0.0264526 0.0264526 0.000175661 -0.0415458
0.0008 0.0279548 0.0279548 0.000188291 -0.0439048
0.0008 0.0279548 0.0279548 0.000188291 -0.0439048
0.00085 0.0294418 0.0294418 0.000201007 -0.0462398
0.00085 0.0294418 0.0294418 0.000201007 -0.0462398
0.0009 0.0309356 0.0309356 0.000213797 -0.0485855
0.0009 0.0309356 0.0309356 0.000213797 -0.0485855
0.00095 0.0324581 0.0324581 0.000226647 -0.0509762
0.00095 0.0324581 0.0324581 0.000226647 -0.0509762
0.001 0.0340234 0.0340234 0.000239548 -0.0534339
0.001 0.0340234 0.0340234 0.000239548 -0.0534339
0.00105 0.0356351 0.0356351 0.000252485 -0.0559644
0.00105 0.0356351 0.0356351 0.000252485 -0.0559644
0.0011 0.0372918 0.0372918 0.000265453 -0.0585658
0.0011 0.0372918 0.0372918 0.000265453 -0.0585658
0.00115 0.0389859 0.0389859 0.000278439 -0.0612259
0.00115 0.0389859 0.0389859 0.000278439 -0.0612259
0.0012 0.0407094 0.0407094 0.000291438 -0.0639322
0.0012 0.0407094 0.0407094 0.000291438 -0.0639322
0.00125 0.0424522 0.0424522 0.00030444 -0.0666687
0.00125 0.0424522 0.0424522 0.00030444 -0.0666687
0.0013 0.0442078 0.0442078 0.000317442 -0.0694253
0.0013 0.0442078 0.0442078 0.000317442 -0.0694253
0.00135 0.0459725 0.0459725 0.000330437 -0.0721961
0.00135 0.0459725 0.0459725 0.000330437 -0.0721961
0.0014 0.0477464 0.0477464 0.000343418 -0.0749815
0.0014 0.0477464 0.0477464 0.000343418 -0.0749815
0.00145 0.0495323 0.0495324 0.000356384 -0.0777859
0.00145 0.0495323 0.0495324 0.000356384 -0.0777859
0.0015 0.051329 0.051329 0.000369328 -0.080607
0.0015 0.051329 0.051329 0.000369328 -0.080607
0.00155 0.0531343 0.0531343 0.000382247 -0.0834416
0.00155 0.0531343 0.0531343 0.000382247 -0.0834416
0.0016 0.0549516 0.0549515 0.000395136 -0.086295
0.0016 0.0549516 0.0549515 0.000395136 -0.086295
0.00165 0.0567789 0.0567788 0.000407991 -0.0891641
0.00165 0.0567789 0.0567788 0.000407991 -0.0891641
0.0017 0.0586163 0.0586163 0.000420807 -0.0920491
0.0017 0.0586163 0.0586163 0.000420807 -0.0920491
0.00175 0.0604626 0.0604626 0.000433586 -0.0949483
0.00175 0.0604626 0.0604626 0.000433586 -0.0949483
0.0018 0.0623183 0.0623183 0.000446319 -0.0978622
0.0018 0.0623183 0.0623183 0.000446319 -0.0978622
0.00185 0.0641784 0.0641783 0.000459007 -0.100783
0.00185 0.0641784 0.0641783 0.000459007 -0.100783
0.0019 0.0660406 0.0660406 0.000471642 -0.103707
0.0019 0.0660406 0.0660406 0.000471642 -0.103707
0.00195 0.0679008 0.0679008 0.00048423 -0.106628
0.00195 0.0679008 0.0679008 0.00048423 -0.106628
0.002 0.0697625 0.0697625 0.000496761 -0.109551
0.002 0.0697625 0.0697625 0.000496761 -0.109551
0.00205 0.0716272 0.0716272 0.000509241 -0.112479
0.00205 0.0716272 0.0716272 0.000509241 -0.112479
0.0021 0.0734951 0.0734951 0.000521658 -0.115412
0.0021 0.0734951 0.0734951 0.000521658 -0.115412
0.00215 0.0753649 0.0753649 0.000534019 -0.118348
0.00215 0.0753649 0.0753649 0.000534019 -0.118348
0.0022 0.0772293 0.0772294 0.000546314 -0.121275
0.0022 0.0772293 0.0772294 0.000546314 -0.121275
0.00225 0.0790972 0.0790972 0.000558541 -0.124208
0.00225 0.0790972 0.0790972 0.000558541 -0.124208
0.0023 0.0809619 0.0809619 0.000570703 -0.127136
0.0023 0.0809619 0.0809619 0.000570703 -0.127136
0.00235 0.0828316 0.0828316 0.00058278 -0.130072
0.00235 0.0828316 0.0828316 0.00058278 -0.130072
0.0024 0.0846934 0.0846934 0.000594776 -0.132995
0.0024 0.0846934 0.0846934 0.000594776 -0.132995
0.00245 0.0865526 0.0865526 0.000606685 -0.135914
0.00245 0.0865526 0.0865526 0.000606685 -0.135914
0.0025 0.0884147 0.0884147 0.000618483 -0.138838
0.0025 0.0884147 0.0884147 0.000618483 -0.138838
0.00255 0.090267 0.090267 0.000630173 -0.141747
0.00255 0.090267 0.090267 0.000630173 -0.141747
0.0026 0.0921202 0.0921202 0.000641727 -0.144656
0.0026 0.0921202 0.0921202 0.000641727 -0.144656
0.00265 0.0939703 0.0939703 0.000653144 -0.147562
0.00265 0.0939703 0.0939703 0.000653144 -0.147562
0.0027 0.0958088 0.0958088 0.000664397 -0.150448
0.0027 0.0958088 0.0958088 0.000664397 -0.150448
0.00275 0.0976539 0.0976539 0.00067547 -0.153346
0.00275 0.0976539 0.0976539 0.00067547 -0.153346
0.0028 0.099488 0.099488 0.000686336 -0.156226
0.0028 0.099488 0.099488 0.000686336 -0.156226
0.00285 0.101311 0.101311 0.000696992 -0.159088
0.00285 0.101311 0.101311 0.000696992 -0.159088
0.0029 0.103143 0.103143 0.000707402 -0.161965
0.0029 0.103143 0.103143 0.000707402 -0.161965
0.00295 0.10496 0.10496 0.000717545 -0.164819
0.00295 0.10496 0.10496 0.000717545 -0.164819
0.003 0.106768 0.106768 0.000727406 -0.167657
0.003 0.106768 0.106768 0.000727406 -0.167657
0.00305 0.105817 0.105817 0.000731428 -0.166159
0.00305 0.105817 0.105817 0.000731428 -0.166159
0.0031 0.102788 0.102788 0.000729552 -0.161398
0.0031 0.102788 0.102788 0.000729552 -0.161398
0.00315 0.101096 0.101096 0.000727228 -0.158739
0.00315 0.101096 0.101096 0.000727228 -0.158739
0.0032 0.100622 0.100622 0.000724511 -0.157995
0.0032 0.100622 0.100622 0.000724511 -0.157995
0.00325 0.101089 0.101089 0.000721494 -0.158728
0.00325 0.101089 0.101089 0.000721494 -0.158728
0.0033 0.102159 0.102159 0.000718101 -0.16041
0.0033 0.102159 0.102159 0.000718101 -0.16041
0.00335 0.103436 0.103436 0.000714205 -0.162416
0.00335 0.103436 0.103436 0.000714205 -0.162416
0.0034 0.104663 0.104663 0.000709743 -0.164343
0.0034 0.104663 0.104663 0.000709743 -0.164343
0.00345 0.105683 0.105683 0.000704728 -0.165946
0.00345 0.105683 0.105683 0.000704728 -0.165946
0.0035 0.10641 0.10641 0.000699201 -0.167089
0.0035 0.10641 0.10641 0.000699201 -0.167089
0.00355 0.106913 0.106913 0.000693203 -0.167878
0.00355 0.106913 0.106913 0.000693203 -0.167878
0.0036 0.107225 0.107225 0.000686758 -0.168368
0.0036 0.107225 0.107225 0.000686758 -0.168368
0.00365 0.107417 0.107417 0.000679879 -0.168669
0.00365 0.107417 0.107417 0.000679879 -0.168669
0.0037 0.107592 0.107592 0.000672585 -0.168945
0.0037 0.107592 0.107592 0.000672585 -0.168945
0.00375 0.107767 0.107767 0.000664897 -0.169219
0.00375 0.107767 0.107767 0.000664897 -0.169219
0.0038 0.107951 0.107951 0.000656837 -0.169509
0.0038 0.107951 0.107951 0.000656837 -0.169509
0.00385 0.108181 0.108181 0.000648432 -0.16987
0.00385 0.108181 0.108181 0.000648432 -0.16987
0.0039 0.108401 0.108401 0.000639722 -0.170216
0.0039 0.108401 0.108401 0.000639722 -0.170216
0.00395 0.108597 0.108597 0.000630727 -0.170523
0.00395 0.108597 0.108597 0.000630727 -0.170523
0.004 0.108789 0.108789 0.00062148 -0.170826
0.004 0.108789 0.108789 0.00062148 -0.170826
0.00405 0.108911 0.108911 0.000612008 -0.171018
0.00405 0.108911 0.108911 0.000612008 -0.171018
0.0041 0.108982 0.108982 0.000602336 -0.17113
0.0041 0.108982 0.108982 0.000602336 -0.17113
0.00415 0.109036 0.109036 0.000592485 -0.171215
0.00415 0.109036 0.109036 0.000592485 -0.171215
0.0042 0.109022 0.109022 0.00058248 -0.171193
0.0042 0.109022 0.109022 0.00058248 -0.171193
0.00425 0.108975 0.108975 0.00057234 -0.17112
0.00425 0.108975 0.108975 0.00057234 -0.17112
0.0043 0.108936 0.108936 0.000562083 -0.171059
0.0043 0.108936 0.108936 0.000562083 -0.171059
0.00435 0.108856 0.108856 0.000551729 -0.170934
0.00435 0.108856 0.108856 0.000551729 -0.170934
0.0044 0.108765 0.108765 0.000541295 -0.170792
0.0044 0.108765 0.108765 0.000541295 -0.170792
0.00445 0.108699 0.108699 0.000530793 -0.170688
0.00445 0.108699 0.108699 0.000530793 -0.170688
0.0045 0.108593 0.108593 0.000520239 -0.170522
0.0045 0.108593 0.108593 0.000520239 -0.170522
0.00455 0.108473 0.108473 0.000509645 -0.170334
0.00455 0.108473 0.108473 0.000509645 -0.170334
0.0046 0.108375 0.108375 0.000499023 -0.17018
0.0046 0.108375 0.108375 0.000499023 -0.17018
0.00465 0.108236 0.108236 0.000488387 -0.169962
0.00465 0.108236 0.108236 0.000488387 -0.169962
0.0047 0.108081 0.108081 0.000477745 -0.169719
0.0047 0.108081 0.108081 0.000477745 -0.169719
0.00475 0.107951 0.107951 0.00046711 -0.169515
0.00475 0.107951 0.107951 0.00046711 -0.169515
0.0048 0.107784 0.107784 0.000456491 -0.169254
0.0048 0.107784 0.107784 0.000456491 -0.169254
0.00485 0.107605 0.107605 0.000445899 -0.168972
0.00485 0.107605 0.107605 0.000445899 -0.168972
0.0049 0.107455 0.107455 0.000435341 -0.168737
0.0049 0.107455 0.107455 0.000435341 -0.168737
0.00495 0.107274 0.107274 0.000424828 -0.168453
0.00495 0.107274 0.107274 0.000424828 -0.168453
0.005 0.107084 0.107084 0.000414368 -0.168155
0.005 0.107084 0.107084 0.000414368 -0.168155
0.00505 0.106926 0.106926 0.000403974 -0.167906
0.00505 0.106926 0.106926 0.000403974 -0.167906
0.0051 0.106741 0.106741 0.00039365 -0.167617
0.0051 0.106741 0.106741 0.00039365 -0.167617
0.00515 0.106547 0.106547 0.000383415 -0.167313
0.00515 0.106547 0.106547 0.000383415 -0.167313
0.0052 0.106387 0.106387 0.000373272 -0.167061
0.0052 0.106387 0.106387 0.000373272 -0.167061
0.00525 0.106194 0.106194 0.000363231 -0.166759
0.00525 0.106194 0.106194 0.000363231 -0.166759
0.0053 0.105997 0.105997 0.000353317 -0.16645
0.0053 0.105997 0.105997 0.000353317 -0.16645
0.00535 0.105834 0.105834 0.000343532 -0.166194
0.00535 0.105834 0.105834 0.000343532 -0.166194
0.0054 0.105643 0.105643 0.000333902 -0.165893
0.0054 0.105643 0.105643 0.000333902 -0.165893
0.00545 0.10545 0.10545 0.000324439 -0.165592
0.00545 0.10545 0.10545 0.000324439 -0.165592
0.0055 0.105289 0.105289 0.000315166 -0.165339
0.0055 0.105289 0.105289 0.000315166 -0.165339
0.00555 0.105104 0.105104 0.000306108 -0.165048
0.00555 0.105104 0.105104 0.000306108 -0.165048
0.0056 0.104914 0.104914 0.000297279 -0.16475
0.0056 0.104914 0.104914 0.000297279 -0.16475
0.00565 0.104749 0.104749 0.000288714 -0.164491
0.00565 0.104749 0.104749 0.000288714 -0.164491
0.0057 0.104565 0.104565 0.00028044 -0.164202
0.0057 0.104565 0.104565 0.00028044 -0.164202
0.00575 0.104382 0.104382 0.000272486 -0.163915
0.00575 0.104382 0.104382 0.000272486 -0.163915
0.0058 0.104226 0.104226 0.000264888 -0.163671
0.0058 0.104226 0.104226 0.000264888 -0.163671
0.00585 0.104053 0.104053 0.000257668 -0.163398
0.00585 0.104053 0.104053 0.000257668 -0.163398
0.0059 0.103878 0.103878 0.000250869 -0.163123
0.0059 0.103878 0.103878 0.000250869 -0.163123
0.00595 0.103721 0.103721 0.00024452 -0.162877
0.00595 0.103721 0.103721 0.00024452 -0.162877
0.006 0.103546 0.103546 0.000238653 -0.162602
0.006 0.103546 0.103546 0.000238653 -0.162602
0.00605 0.103379 0.103379 0.000233295 -0.16234
0.00605 0.103379 0.103379 0.000233295 -0.16234
0.0061 0.103228 0.103228 0.000228482 -0.162103
0.0061 0.103228 0.103228 0.000228482 -0.162103
0.00615 0.103058 0.103058 0.000224224 -0.161836
0.00615 0.103058 0.103058 0.000224224 -0.161836
0.0062 0.102903 0.102903 0.000220558 -0.161592
0.0062 0.102903 0.102903 0.000220558 -0.161592
0.00625 0.102758 0.102758 0.000217486 -0.161365
0.00625 0.102758 0.102758 0.000217486 -0.161365
0.0063 0.102588 0.102588 0.000215032 -0.161097
0.0063 0.102588 0.102588 0.000215032 -0.161097
0.00635 0.102439 0.102439 0.000213196 -0.160863
0.00635 0.102439 0.102439 0.000213196 -0.160863
0.0064 0.102296 0.102296 0.000211992 -0.160639
0.0064 0.102296 0.102296 0.000211992 -0.160639
0.00645 0.102122 0.102122 0.000211401 -0.160365
0.00645 0.102122 0.102122 0.000211401 -0.160365
0.0065 0.101975 0.101975 0.00021143 -0.160133
0.0065 0.101975 0.101975 0.00021143 -0.160133
0.00655 0.101832 0.101832 0.000212068 -0.15991
0.00655 0.101832 0.101832 0.000212068 -0.15991
0.0066 0.101653 0.101653 0.000213298 -0.159628
0.0066 0.101653 0.101653 0.000213298 -0.159628
0.00665 0.101503 0.101503 0.000215099 -0.159392
0.00665 0.101503 0.101503 0.000215099 -0.159392
0.0067 0.10136 0.10136 0.000217452 -0.159168
0.0067 0.10136 0.10136 0.000217452 -0.159168
0.00675 0.101175 0.101175 0.000220343 -0.158878
0.00675 0.101175 0.101175 0.000220343 -0.158878
0.0068 0.101018 0.101018 0.000223732 -0.158629
0.0068 0.101018 0.101018 0.000223732 -0.158629
0.00685 0.10087 0.10087 0.000227597 -0.158398
0.00685 0.10087 0.10087 0.000227597 -0.158398
0.0069 0.100675 0.100675 0.000231917 -0.158091
0.0069 0.100675 0.100675 0.000231917 -0.158091
0.00695 0.100506 0.100506 0.000236662 -0.157825
0.00695 0.100506 0.100506 0.000236662 -0.157825
0.007 0.100348 0.100348 0.000241799 -0.157578
0.007 0.100348 0.100348 0.000241799 -0.157578
0.00705 0.100143 0.100143 0.000247297 -0.157255
0.00705 0.100143 0.100143 0.000247297 -0.157255
0.0071 0.0999606 0.0999606 0.000253142 -0.156968
0.0071 0.0999606 0.0999606 0.000253142 -0.156968
0.00715 0.0997842 0.0997842 0.000259287 -0.156691
0.00715 0.0997842 0.0997842 0.000259287 -0.156691
0.0072 0.0995674 0.0995674 0.00026572 -0.156351
0.0072 0.0995674 0.0995674 0.00026572 -0.156351
0.00725 0.0993687 0.0993687 0.000272411 -0.156039
0.00725 0.0993687 0.0993687 0.000272411 -0.156039
0.0073 0.0991673 0.0991673 0.000279333 -0.155722
0.0073 0.0991673 0.0991673 0.000279333 -0.155722
0.00735 0.0989398 0.0989398 0.000286464 -0.155365
0.00735 0.0989398 0.0989398 0.000286464 -0.155365
0.0074 0.0987206 0.0987206 0.000293781 -0.155021
0.0074 0.0987206 0.0987206 0.000293781 -0.155021
0.00745 0.0984892 0.0984891 0.000301261 -0.154656
0.00745 0.0984892 0.0984891 0.000301261 -0.154656
0.0075 0.0982447 0.0982447 0.000308883 -0.154273
0.0075 0.0982447 0.0982447 0.000308883 -0.154273
0.00755 0.0980024 0.0980024 0.000316629 -0.153892
0.00755 0.0980024 0.0980024 0.000316629 -0.153892
0.0076 0.0977348 0.0977347 0.000324481 -0.153471
0.0076 0.0977348 0.0977347 0.000324481 -0.153471
0.00765 0.0974737 0.0974737 0.000332417 -0.153062
0.00765 0.0974737 0.0974737 0.000332417 -0.153062
0.0077 0.0971984 0.0971984 0.000340417 -0.152629
0.0077 0.0971984 0.0971984 0.000340417 -0.152629
0.00775 0.0968914 0.0968914 0.000348478 -0.152147
0.00775 0.0968914 0.0968914 0.000348478 -0.152147
0.0078 0.0966078 0.0966078 0.000356569 -0.151702
0.0078 0.0966078 0.0966078 0.000356569 -0.151702
0.00785 0.0962953 0.0962953 0.000364681 -0.151211
0.00785 0.0962953 0.0962953 0.000364681 -0.151211
0.0079 0.0959522 0.0959522 0.000372805 -0.150672
0.0079 0.0959522 0.0959522 0.000372805 -0.150672
0.00795 0.0956354 0.0956354 0.000380919 -0.150174
0.00795 0.0956354 0.0956354 0.000380919 -0.150174
0.008 0.0952819 0.0952819 0.000389014 -0.14962
0.008 0.0952819 0.0952819 0.000389014 -0.14962
0.00805 0.0949015 0.0949015 0.000397073 -0.149022
0.00805 0.0949015 0.0949015 0.000397073 -0.149022
0.0081 0.0945391 0.0945391 0.000405083 -0.148452
0.0081 0.0945391 0.0945391 0.000405083 -0.148452
0.00815 0.0941441 0.0941441 0.000413032 -0.147833
0.00815 0.0941441 0.0941441 0.000413032 -0.147833
0.0082 0.0937239 0.0937239 0.000420904 -0.147173
0.0082 0.0937239 0.0937239 0.000420904 -0.147173
0.00825 0.0933072 0.0933072 0.000428685 -0.146518
0.00825 0.0933072 0.0933072 0.000428685 -0.146518
0.0083 0.0928652 0.0928652 0.00043636 -0.145824
0.0083 0.0928652 0.0928652 0.00043636 -0.145824
0.00835 0.0924026 0.0924026 0.000443915 -0.145098
0.00835 0.0924026 0.0924026 0.000443915 -0.145098
0.0084 0.0919249 0.0919249 0.000451333 -0.144347
0.0084 0.0919249 0.0919249 0.000451333 -0.144347
0.00845 0.0914352 0.0914352 0.000458599 -0.143579
0.00845 0.0914352 0.0914352 0.000458599 -0.143579
0.0085 0.0909222 0.0909222 0.000465695 -0.142774
0.0085 0.0909222 0.0909222 0.000465695 -0.142774
0.00855 0.0903789 0.0903789 0.000472605 -0.14192
0.00855 0.0903789 0.0903789 0.000472605 -0.14192
0.0086 0.0898331 0.0898332 0.00047931 -0.141063
0.0086 0.0898331 0.0898332 0.00047931 -0.141063
0.00865 0.0892637 0.0892637 0.000485794 -0.140169
0.00865 0.0892637 0.0892637 0.000485794 -0.140169
0.0087 0.0886531 0.0886531 0.000492037 -0.13921
0.0087 0.0886531 0.0886531 0.000492037 -0.13921
0.00875 0.0880458 0.0880458 0.000498023 -0.138256
0.00875 0.0880458 0.0880458 0.000498023 -0.138256
0.0088 0.0874142 0.0874142 0.000503732 -0.137265
0.0088 0.0874142 0.0874142 0.000503732 -0.137265
0.00885 0.0867366 0.0867366 0.000509146 -0.136201
0.00885 0.0867366 0.0867366 0.000509146 -0.136201
0.0089 0.0860567 0.0860567 0.000514249 -0.135133
0.0089 0.0860567 0.0860567 0.000514249 -0.135133
0.00895 0.085357 0.085357 0.000519022 -0.134035
0.00895 0.085357 0.085357 0.000519022 -0.134035
0.009 0.0846082 0.0846081 0.000523454 -0.132859
0.009 0.0846082 0.0846081 0.000523454 -0.132859
0.00905 0.0838503 0.0838503 0.000527522 -0.131668
0.00905 0.0838503 0.0838503 0.000527522 -0.131668
0.0091 0.0830764 0.0830764 0.000531224 -0.130453
0.0091 0.0830764 0.0830764 0.000531224 -0.130453
0.00915 0.0822506 0.0822506 0.000534535 -0.129156
0.00915 0.0822506 0.0822506 0.000534535 -0.129156
0.0092 0.0814109 0.0814109 0.000537455 -0.127838
0.0092 0.0814109 0.0814109 0.000537455 -0.127838
0.00925 0.0805544 0.0805544 0.000539973 -0.126493
0.00925 0.0805544 0.0805544 0.000539973 -0.126493
0.0093 0.0796442 0.0796442 0.000542084 -0.125064
0.0093 0.0796442 0.0796442 0.000542084 -0.125064
0.00935 0.0787183 0.0787183 0.000543782 -0.12361
0.00935 0.0787183 0.0787183 0.000543782 -0.12361
0.0094 0.0777661 0.0777661 0.000545067 -0.122114
0.0094 0.0777661 0.0777661 0.000545067 -0.122114
0.00945 0.0767741 0.0767741 0.000545939 -0.120557
0.00945 0.0767741 0.0767741 0.000545939 -0.120557
0.0095 0.075756 0.075756 0.0005464 -0.118958
0.0095 0.075756 0.075756 0.0005464 -0.118958
0.00955 0.0746988 0.0746988 0.000546456 -0.117297
0.00955 0.0746988 0.0746988 0.000546456 -0.117297
0.0096 0.0736197 0.0736197 0.000546114 -0.115603
0.0096 0.0736197 0.0736197 0.000546114 -0.115603
0.00965 0.072496 0.072496 0.000545384 -0.113838
0.00965 0.072496 0.072496 0.000545384 -0.113838
0.0097 0.0713403 0.0713403 0.000544278 -0.112023
0.0097 0.0713403 0.0713403 0.000544278 -0.112023
0.00975 0.0701619 0.0701619 0.00054281 -0.110174
0.00975 0.0701619 0.0701619 0.00054281 -0.110174
0.0098 0.068924 0.0689241 0.000540982 -0.10823
0.0098 0.068924 0.0689241 0.000540982 -0.10823
0.00985 0.0676645 0.0676645 0.000538827 -0.106251
0.00985 0.0676645 0.0676645 0.000538827 -0.106251
0.0099 0.0663722 0.0663722 0.000536358 -0.104222
0.0099 0.0663722 0.0663722 0.000536358 -0.104222
0.00995 0.0650326 0.0650326 0.000533581 -0.102119
0.00995 0.0650326 0.0650326 0.000533581 -0.102119
0.01 0.0636572 0.0636572 0.000530529 -0.0999587
0.01 0.0636572 0.0636572 0.000530529 -0.0999587
0.01005 0.0622563 0.0622563 0.000527221 -0.0977589
0.01005 0.0622563 0.0622563 0.000527221 -0.0977589
0.0101 0.0607944 0.0607944 0.000523663 -0.0954631
0.0101 0.0607944 0.0607944 0.000523663 -0.0954631
0.01015 0.0593077 0.0593077 0.000519891 -0.0931283
0.01015 0.0593077 0.0593077 0.000519891 -0.0931283
0.0102 0.057794 0.057794 0.000515922 -0.0907515
0.0102 0.057794 0.057794 0.000515922 -0.0907515
0.01025 0.0562164 0.0562164 0.000511767 -0.0882741
0.01025 0.0562164 0.0562164 0.000511767 -0.0882741
0.0103 0.0546069 0.0546069 0.000507457 -0.0857462
0.0103 0.0546069 0.0546069 0.000507457 -0.0857462
0.01035 0.0529778 0.0529778 0.000503002 -0.083188
0.01035 0.0529778 0.0529778 0.000503002 -0.083188
0.0104 0.0512933 0.0512933 0.000498431 -0.0805428
0.0104 0.0512933 0.0512933 0.000498431 -0.0805428
0.01045 0.0495679 0.0495679 0.000493752 -0.0778332
0.01045 0.0495679 0.0495679 0.000493752 -0.0778332
0.0105 0.0478143 0.0478143 0.000488993 -0.0750794
0.0105 0.0478143 0.0478143 0.000488993 -0.0750794
0.01055 0.0460039 0.0460039 0.000484162 -0.0722364
0.01055 0.0460039 0.0460039 0.000484162 -0.0722364
0.0106 0.0441591 0.0441591 0.000479282 -0.069339
0.0106 0.0441591 0.0441591 0.000479282 -0.069339
0.01065 0.0422895 0.0422895 0.000474364 -0.0664031
0.01065 0.0422895 0.0422895 0.000474364 -0.0664031
0.0107 0.0403653 0.0403653 0.000469427 -0.0633813
0.0107 0.0403653 0.0403653 0.000469427 -0.0633813
0.01075 0.0384006 0.0384006 0.000464483 -0.0602958
0.01075 0.0384006 0.0384006 0.000464483 -0.0602958
0.0108 0.0364098 0.0364098 0.000459548 -0.0571696
0.0108 0.0364098 0.0364098 0.000459548 -0.0571696
0.01085 0.0343677 0.0343677 0.000454633 -0.0539627
0.01085 0.0343677 0.0343677 0.000454633 -0.0539627
0.0109 0.0322875 0.0322875 0.000449751 -0.0506959
0.0109 0.0322875 0.0322875 0.000449751 -0.0506959
0.01095 0.030178 0.030178 0.000444919 -0.0473833
0.01095 0.030178 0.030178 0.000444919 -0.0473833
0.011 0.02802 0.02802 0.000440148 -0.0439944
0.011 0.02802 0.02802 0.000440148 -0.0439944
0.01105 0.0258238 0.0258238 0.000435451 -0.0405456
0.01105 0.0258238 0.0258238 0.000435451 -0.0405456
0.0111 0.0235969 0.0235969 0.000430842 -0.037049
0.0111 0.0235969 0.0235969 0.000430842 -0.037049
0.01115 0.0213252 0.0213252 0.000426333 -0.0334816
0.01115 0.0213252 0.0213252 0.000426333 -0.0334816
0.0112 0.0190196 0.0190197 0.000421934 -0.0298608
0.0112 0.0190196 0.0190197 0.000421934 -0.0298608
0.01125 0.0166801 0.0166801 0.000417658 -0.0261875
0.01125 0.0166801 0.0166801 0.000417658 -0.0261875
0.0113 0.0143016 0.0143016 0.000413514 -0.0224527
0.0113 0.0143016 0.0143016 0.000413514 -0.0224527
0.01135 0.0118914 0.0118914 0.000409513 -0.0186676
0.01135 0.0118914 0.0118914 0.000409513 -0.0186676
0.0114 0.00944841 0.0094484 0.000405664 -0.0148318
0.0114 0.00944841 0.0094484 0.000405664 -0.0148318
0.01145 0.00696844 0.00696843 0.000401977 -0.0109374
0.01145 0.00696844 0.00696843 0.000401977 -0.0109374
0.0115 0.00445804 0.00445804 0.000398463 -0.00699526
0.0115 0.00445804 0.00445804 0.000398463 -0.00699526
0.01155 0.00192481 0.00192482 0.000395131 -0.00301779
0.01155 0.00192481 0.00192482 0.000395131 -0.00301779
0.0116 -0.000649912 -0.000649899 0.00039199 0.0010253
0.0116 -0.000649912 -0.000649899 0.00039199 0.0010253
0.01165 -0.00324843 -0.00324844 0.00038905 0.00510562
0.01165 -0.00324843 -0.00324844 0.00038905 0.00510562
0.0117 -0.00586067 -0.00586066 0.000386318 0.00920737
0.0117 -0.00586067 -0.00586066 0.000386318 0.00920737
0.01175 -0.00851337 -0.00851336 0.000383804 0.0133727
0.01175 -0.00851337 -0.00851336 0.000383804 0.0133727
0.0118 -0.0111838 -0.0111837 0.000381515 0.0175659
0.0118 -0.0111838 -0.0111837 0.000381515 0.0175659
0.01185 -0.0138736 -0.0138736 0.000379457 0.0217897
0.01185 -0.0138736 -0.0138736 0.000379457 0.0217897
0.0119 -0.016573 -0.016573 0.000377636 0.026028
0.0119 -0.016573 -0.016573 0.000377636 0.026028
0.01195 -0.0193022 -0.0193022 0.000376059 0.0303136
0.01195 -0.0193022 -0.0193022 0.000376059 0.0303136
0.012 -0.0220383 -0.0220383 0.000374729 0.0346097
0.012 -0.0220383 -0.0220383 0.000374729 0.0346097
0.01205 -0.0247873 -0.0247873 0.000373649 0.0389264
0.01205 -0.0247873 -0.0247873 0.000373649 0.0389264
0.0121 -0.0275355 -0.0275355 0.000372823 0.0432414
0.0121 -0.0275355 -0.0275355 0.000372823 0.0432414
0.01215 -0.0303039 -0.0303039 0.000372252 0.0475882
0.01215 -0.0303039 -0.0303039 0.000372252 0.0475882
0.0122 -0.0330704 -0.0330704 0.000371935 0.0519323
0.0122 -0.0330704 -0.0330704 0.000371935 0.0519323
0.01225 -0.0358372 -0.0358372 0.000371871 0.0562768
0.01225 -0.0358372 -0.0358372 0.000371871 0.0562768
0.0123 -0.0385949 -0.0385949 0.000372059 0.060607
0.0123 -0.0385949 -0.0385949 0.000372059 0.060607
0.01235 -0.0413537 -0.0413537 0.000372494 0.0649386
0.01235 -0.0413537 -0.0413537 0.000372494 0.0649386
0.0124 -0.0441097 -0.0441097 0.000373172 0.0692661
0.0124 -0.0441097 -0.0441097 0.000373172 0.0692661
0.01245 -0.0468529 -0.0468529 0.000374085 0.0735737
0.01245 -0.0468529 -0.0468529 0.000374085 0.0735737
0.0125 -0.0495816 -0.0495816 0.000375226 0.0778583
0.0125 -0.0495816 -0.0495816 0.000375226 0.0778583
0.01255 -0.052287 -0.052287 0.000376586 0.0821062
0.01255 -0.052287 -0.052287 0.000376586 0.0821062
0.0126 -0.054981 -0.054981 0.000378153 0.0863363
0.0126 -0.054981 -0.054981 0.000378153 0.0863363
0.01265 -0.0576593 -0.0576593 0.000379917 0.0905416
0.01265 -0.0576593 -0.0576593 0.000379917 0.0905416
0.0127 -0.0603094 -0.0603094 0.000381863 0.094703
0.0127 -0.0603094 -0.0603094 0.000381863 0.094703
0.01275 -0.0629316 -0.0629316 0.000383976 0.0988203
0.01275 -0.0629316 -0.0629316 0.000383976 0.0988203
0.0128 -0.0655233 -0.0655233 0.000386243 0.10289
0.0128 -0.0655233 -0.0655233 0.000386243 0.10289
0.01285 -0.0680884 -0.0680884 0.000388646 0.106917
0.01285 -0.0680884 -0.0680884 0.000388646 0.106917
0.0129 -0.0706181 -0.0706181 0.000391168 0.110889
0.0129 -0.0706181 -0.0706181 0.000391168 0.110889
0.01295 -0.0731188 -0.0731188 0.00039379 0.114816
0.01295 -0.0731188 -0.0731188 0.00039379 0.114816
0.013 -0.0755727 -0.0755727 0.000396493 0.118669
0.013 -0.0755727 -0.0755727 0.000396493 0.118669
0.01305 -0.0779907 -0.0779907 0.000399257 0.122466
0.01305 -0.0779907 -0.0779907 0.000399257 0.122466
0.0131 -0.0803625 -0.0803625 0.000402064 0.12619
0.0131 -0.0803625 -0.0803625 0.000402064 0.12619
0.01315 -0.0826958 -0.0826958 0.000404892 0.129854
0.01315 -0.0826958 -0.0826958 0.000404892 0.129854
0.0132 -0.0849804 -0.0849804 0.00040772 0.133441
0.0132 -0.0849804 -0.0849804 0.00040772 0.133441
0.01325 -0.0872194 -0.0872194 0.000410528 0.136956
0.01325 -0.0872194 -0.0872194 0.000410528 0.136956
0.0133 -0.0894063 -0.0894063 0.000413291 0.14039
0.0133 -0.0894063 -0.0894063 0.000413291 0.14039
0.01335 -0.0915415 -0.0915415 0.000415995 0.143743
0.01335 -0.0915415 -0.0915415 0.000415995 0.143743
0.0134 -0.0936214 -0.0936214 0.00041861 0.147009
0.0134 -0.0936214 -0.0936214 0.00041861 0.147009
0.01345 -0.0956458 -0.0956458 0.000421127 0.150187
0.01345 -0.0956458 -0.0956458 0.000421127 0.150187
0.0135 -0.0976182 -0.0976182 0.000423509 0.153284
0.0135 -0.0976182 -0.0976182 0.000423509 0.153284
0.01355 -0.0995256 -0.0995256 0.000425752 0.156279
0.01355 -0.0995256 -0.0995256 0.000425752 0.156279
0.0136 -0.101376 -0.101376 0.000427834 0.159184
0.0136 -0.101376 -0.101376 0.000427834 0.159184
0.01365 -0.10316 -0.10316 0.000429724 0.161986
0.01365 -0.10316 -0.10316 0.000429724 0.161986
0.0137 -0.104887 -0.104887 0.000431413 0.164697
0.0137 -0.104887 -0.104887 0.000431413 0.164697
0.01375 -0.106548 -0.106548 0.000432888 0.167305
0.01375 -0.106548 -0.106548 0.000432888 0.167305
0.0138 -0.108134 -0.108134 0.000434121 0.169796
0.0138 -0.108134 -0.108134 0.000434121 0.169796
0.01385 -0.10966 -0.10966 0.000435101 0.172193
0.01385 -0.10966 -0.10966 0.000435101 0.172193
0.0139 -0.111113 -0.111113 0.000435812 0.174475
0.0139 -0.111113 -0.111113 0.000435812 0.174475
0.01395 -0.112493 -0.112493 0.00043624 0.176642
0.01395 -0.112493 -0.112493 0.00043624 0.176642
0.014 -0.113803 -0.113803 0.000436373 0.178699
0.014 -0.113803 -0.113803 0.000436373 0.178699
0.01405 -0.115041 -0.115041 0.000436194 0.180644
0.01405 -0.115041 -0.115041 0.000436194 0.180644
0.0141 -0.116199 -0.116199 0.000435695 0.182461
0.0141 -0.116199 -0.116199 0.000435695 0.182461
0.01415 -0.117286 -0.117286 0.000434863 0.184169
0.01415 -0.117286 -0.117286 0.000434863 0.184169
0.0142 -0.118301 -0.118301 0.000433689 0.185764
0.0142 -0.118301 -0.118301 0.000433689 0.185764
0.01425 -0.119235 -0.119235 0.000432162 0.187231
0.01425 -0.119235 -0.119235 0.000432162 0.187231
0.0143 -0.120079 -0.120079 0.000430276 0.188557
0.0143 -0.120079 -0.120079 0.000430276 0.188557
0.01435 -0.120817 -0.120817 0.000428031 0.189715
0.01435 -0.120817 -0.120817 0.000428031 0.189715
0.0144 -0.121512 -0.121512 0.000425409 0.190805
0.0144 -0.121512 -0.121512 0.000425409 0.190805
0.01445 -0.122171 -0.122171 0.000422412 0.191839
0.01445 -0.122171 -0.122171 0.000422412 0.191839
0.0145 -0.122722 -0.122722 0.000419027 0.192704
0.0145 -0.122722 -0.122722 0.000419027 0.192704
0.01455 -0.123193 -0.123193 0.000415241 0.193443
0.01455 -0.123193 -0.123193 0.000415241 0.193443
0.0146 -0.123598 -0.123598 0.000411062 0.19408
0.0146 -0.123598 -0.123598 0.000411062 0.19408
0.01465 -0.123915 -0.123915 0.000406481 0.194577
0.01465 -0.123915 -0.123915 0.000406481 0.194577
0.0147 -0.124153 -0.124153 0.000401501 0.194952
0.0147 -0.124153 -0.124153 0.000401501 0.194952
0.01475 -0.124307 -0.124307 0.000396125 0.195194
0.01475 -0.124307 -0.124307 0.000396125 0.195194
0.0148 -0.124383 -0.124383 0.000390358 0.195313
0.0148 -0.124383 -0.124383 0.000390358 0.195313
0.01485 -0.124384 -0.124384 0.000384197 0.195316
0.01485 -0.124384 -0.124384 0.000384197 0.195316
0.0149 -0.124313 -0.124313 0.000377653 0.195205
0.0149 -0.124313 -0.124313 0.000377653 0.195205
0.01495 -0.124173 -0.124173 0.000370728 0.194986
0.01495 -0.124173 -0.124173 0.000370728 0.194986
0.015 -0.123969 -0.123969 0.000363429 0.194665
0.015 -0.123969 -0.123969 0.000363429 0.194665
0.01505 -0.1237 -0.1237 0.000355764 0.194243
0.01505 -0.1237 -0.1237 0.000355764 0.194243
0.0151 -0.123365 -0.123365 0.000347746 0.193718
0.0151 -0.123365 -0.123365 0.000347746 0.193718
0.01515 -0.122964 -0.122964 0.000339384 0.193089
0.01515 -0.122964 -0.122964 0.000339384 0.193089
0.0152 -0.122497 -0.122497 0.000330692 0.192355
0.0152 -0.122497 -0.122497 0.000330692 0.192355
0.01525 -0.121967 -0.121967 0.000321684 0.191523
0.01525 -0.121967 -0.121967 0.000321684 0.191523
0.0153 -0.121379 -0.121379 0.000312375 0.1906