# Time forceX forceY forceZ normalForce
0.0002 0.0122326 0.0122326 4.55166e-05 -0.0192191
0.0002 0.0122326 0.0122326 4.55166e-05 -0.0192191
0.0004 0.0179488 0.0179488 9.22808e-05 -0.0281955
0.0004 0.0179488 0.0179488 9.22808e-05 -0.0281955
0.0006 0.0229193 0.0229193 0.000140609 -0.0359992
0.0006 0.0229193 0.0229193 0.000140609 -0.0359992
0.0008 0.0285538 0.0285538 0.000190352 -0.044846
0.0008 0.0285538 0.0285538 0.000190352 -0.044846
0.001 0.034803 0.0348031 0.000241027 -0.0546584
0.001 0.034803 0.0348031 0.000241027 -0.0546584
0.0012 0.0414391 0.0414391 0.000292139 -0.0650782
0.0012 0.0414391 0.0414391 0.000292139 -0.0650782
0.0014 0.0483331 0.0483332 0.000343256 -0.0759033
0.0014 0.0483331 0.0483332 0.000343256 -0.0759033
0.0016 0.0554112 0.0554112 0.000393994 -0.087017
0.0016 0.0554112 0.0554112 0.000393994 -0.087017
0.0018 0.0626214 0.0626214 0.000444002 -0.0983381
0.0018 0.0626214 0.0626214 0.000444002 -0.0983381
0.002 0.0699059 0.0699059 0.000492896 -0.109776
0.002 0.0699059 0.0699059 0.000492896 -0.109776
0.0022 0.0772327 0.0772327 0.000540255 -0.121281
0.0022 0.0772327 0.0772327 0.000540255 -0.121281
0.0024 0.0845661 0.084566 0.000585602 -0.132795
0.0024 0.0845661 0.084566 0.000585602 -0.132795
0.0026 0.0918811 0.091881 0.000628464 -0.144282
0.0026 0.0918811 0.091881 0.000628464 -0.144282
0.0028 0.0991554 0.0991554 0.000668395 -0.155704
0.0028 0.0991554 0.0991554 0.000668395 -0.155704
0.003 0.10638 0.10638 0.000705025 -0.167049
0.003 0.10638 0.10638 0.000705025 -0.167049
0.0032 0.101484 0.101484 0.000693146 -0.15935
0.0032 0.101484 0.101484 0.000693146 -0.15935
0.0034 0.102861 0.102861 0.000675935 -0.161513
0.0034 0.102861 0.102861 0.000675935 -0.161513
0.0036 0.104934 0.104934 0.000653588 -0.164769
0.0036 0.104934 0.104934 0.000653588 -0.164769
0.0038 0.10629 0.106289 0.000626635 -0.166899
0.0038 0.10629 0.106289 0.000626635 -0.166899
0.004 0.106975 0.106975 0.000595968 -0.167977
0.004 0.106975 0.106975 0.000595968 -0.167977
0.0042 0.107226 0.107226 0.000562551 -0.168373
0.0042 0.107226 0.107226 0.000562551 -0.168373
0.0044 0.107185 0.107185 0.00052733 -0.168309
0.0044 0.107185 0.107185 0.00052733 -0.168309
0.0046 0.106925 0.106925 0.000491234 -0.167902
0.0046 0.106925 0.106925 0.000491234 -0.167902
0.0048 0.106488 0.106488 0.000455187 -0.167218
0.0048 0.106488 0.106488 0.000455187 -0.167218
0.005 0.105945 0.105945 0.000420119 -0.166366
0.005 0.105945 0.105945 0.000420119 -0.166366
0.0052 0.105323 0.105323 0.00038696 -0.165391
0.0052 0.105323 0.105323 0.00038696 -0.165391
0.0054 0.104659 0.104659 0.00035665 -0.164348
0.0054 0.104659 0.104659 0.00035665 -0.164348
0.0056 0.103969 0.103969 0.000330074 -0.163265
0.0056 0.103969 0.103969 0.000330074 -0.163265
0.0058 0.103265 0.103265 0.00030803 -0.162159
0.0058 0.103265 0.103265 0.00030803 -0.162159
0.006 0.10254 0.10254 0.000291148 -0.161022
0.006 0.10254 0.10254 0.000291148 -0.161022
0.0062 0.101794 0.101794 0.000279851 -0.159849
0.0062 0.101794 0.101794 0.000279851 -0.159849
0.0064 0.101014 0.101014 0.000274301 -0.158625
0.0064 0.101014 0.101014 0.000274301 -0.158625
0.0066 0.100185 0.100185 0.00027439 -0.157323
0.0066 0.100185 0.100185 0.00027439 -0.157323
0.0068 0.0992875 0.0992875 0.00027976 -0.155913
0.0068 0.0992875 0.0992875 0.00027976 -0.155913
0.007 0.0982984 0.0982984 0.000289835 -0.154359
0.007 0.0982984 0.0982984 0.000289835 -0.154359
0.0072 0.0971896 0.0971897 0.000303873 -0.152618
0.0072 0.0971896 0.0971897 0.000303873 -0.152618
0.0074 0.0959351 0.0959351 0.00032102 -0.150647
0.0074 0.0959351 0.0959351 0.00032102 -0.150647
0.0076 0.0945061 0.0945062 0.000340365 -0.148403
0.0076 0.0945061 0.0945062 0.000340365 -0.148403
0.0078 0.0928699 0.09287 0.000360981 -0.145833
0.0078 0.0928699 0.09287 0.000360981 -0.145833
0.008 0.0909985 0.0909986 0.00038198 -0.142894
0.008 0.0909985 0.0909986 0.00038198 -0.142894
0.0082 0.0888581 0.0888581 0.00040253 -0.139532
0.0082 0.0888581 0.0888581 0.00040253 -0.139532
0.0084 0.0864197 0.0864196 0.000421885 -0.135703
0.0084 0.0864197 0.0864196 0.000421885 -0.135703
0.0086 0.0836535 0.0836534 0.00043941 -0.131359
0.0086 0.0836535 0.0836534 0.00043941 -0.131359
0.0088 0.080528 0.080528 0.000454594 -0.126451
0.0088 0.080528 0.080528 0.000454594 -0.126451
0.009 0.0770188 0.0770187 0.000467062 -0.12094
0.009 0.0770188 0.0770187 0.000467062 -0.12094
0.0092 0.0731002 0.0731001 0.000476579 -0.114787
0.0092 0.0731002 0.0731001 0.000476579 -0.114787
0.0094 0.0687497 0.0687496 0.000483054 -0.107955
0.0094 0.0687497 0.0687496 0.000483054 -0.107955
0.0096 0.0639541 0.0639542 0.000486531 -0.100425
0.0096 0.0639541 0.0639542 0.000486531 -0.100425
0.0098 0.0587014 0.0587014 0.000487184 -0.092176
0.0098 0.0587014 0.0587014 0.000487184 -0.092176
0.01 0.0529863 0.0529863 0.00048528 -0.0832017
0.01 0.0529863 0.0529863 0.00048528 -0.0832017
0.0102 0.0468141 0.0468142 0.000481182 -0.0735097
0.0102 0.0468141 0.0468142 0.000481182 -0.0735097
0.0104 0.0401925 0.0401926 0.000475301 -0.0631118
0.0104 0.0401925 0.0401926 0.000475301 -0.0631118
0.0106 0.0331407 0.0331408 0.000468086 -0.052038
0.0106 0.0331407 0.0331408 0.000468086 -0.052038
0.0108 0.0256952 0.0256952 0.00046 -0.0403461
0.0108 0.0256952 0.0256952 0.00046 -0.0403461
0.011 0.0178946 0.0178946 0.000451495 -0.0280971
0.011 0.0178946 0.0178946 0.000451495 -0.0280971
0.0112 0.0097861 0.00978608 0.000442969 -0.0153646
0.0112 0.0097861 0.00978608 0.000442969 -0.0153646
0.0114 0.00143537 0.00143539 0.000434763 -0.00225169
0.0114 0.00143537 0.00143539 0.000434763 -0.00225169
0.0116 -0.00709043 -0.00709045 0.000427137 0.0111361
0.0116 -0.00709043 -0.00709045 0.000427137 0.0111361
0.0118 -0.0157142 -0.0157142 0.000420261 0.0246775
0.0118 -0.0157142 -0.0157142 0.000420261 0.0246775
0.012 -0.024352 -0.0243521 0.000414214 0.0382409
0.012 -0.024352 -0.0243521 0.000414214 0.0382409
0.0122 -0.0329169 -0.032917 0.000408984 0.0516899
0.0122 -0.0329169 -0.032917 0.000408984 0.0516899
0.0124 -0.041319 -0.0413191 0.000404467 0.064883
0.0124 -0.041319 -0.0413191 0.000404467 0.064883
0.0126 -0.0494691 -0.0494692 0.000400488 0.0776805
0.0126 -0.0494691 -0.0494692 0.000400488 0.0776805
0.0128 -0.0572813 -0.0572813 0.000396797 0.0899474
0.0128 -0.0572813 -0.0572813 0.000396797 0.0899474
0.013 -0.0646721 -0.0646722 0.000393101 0.101553
0.013 -0.0646721 -0.0646722 0.000393101 0.101553
0.0132 -0.0715692 -0.0715693 0.000389075 0.112383
0.0132 -0.0715692 -0.0715693 0.000389075 0.112383
0.0134 -0.077905 -0.077905 0.00038439 0.122331
0.0134 -0.077905 -0.077905 0.00038439 0.122331
0.0136 -0.0836262 -0.0836262 0.000378731 0.131315
0.0136 -0.0836262 -0.0836262 0.000378731 0.131315
0.0138 -0.0886877 -0.0886877 0.000371814 0.139262
0.0138 -0.0886877 -0.0886877 0.000371814 0.139262
0.014 -0.0930612 -0.0930612 0.000363416 0.14613
0.014 -0.0930612 -0.0930612 0.000363416 0.14613
0.0142 -0.0967292 -0.0967292 0.000353384 0.15189
0.0142 -0.0967292 -0.0967292 0.000353384 0.15189
0.0144 -0.0996906 -0.0996906 0.000341652 0.156542
0.0144 -0.0996906 -0.0996906 0.000341652 0.156542
0.0146 -0.101949 -0.101949 0.000328246 0.16009
0.0146 -0.101949 -0.101949 0.000328246 0.16009
0.0148 -0.103485 -0.103485 0.000313261 0.1625
0.0148 -0.103485 -0.103485 0.000313261 0.1625
0.015 -0.104388 -0.104388 0.0002969 0.163919
0.015 -0.104388 -0.104388 0.0002969 0.163919
0.0152 -0.104663 -0.104663 0.000279458 0.164351
0.0152 -0.104663 -0.104663 0.000279458 0.164351
0.0154 -0.104362 -0.104362 0.000261303 0.163877
0.0154 -0.104362 -0.104362 0.000261303 0.163877
0.0156 -0.103522 -0.103522 0.000242858 0.16256
0.0156 -0.103522 -0.103522 0.000242858 0.16256
0.0158 -0.102208 -0.102208 0.000224588 0.160496
0.0158 -0.102208 -0.102208 0.000224588 0.160496
0.016 -0.100474 -0.100474 0.00020698 0.157774
0.016 -0.100474 -0.100474 0.00020698 0.157774
0.0162 -0.098373 -0.098373 0.000190518 0.154474
0.0162 -0.098373 -0.098373 0.000190518 0.154474
0.0164 -0.0959654 -0.0959654 0.000175663 0.150694
0.0164 -0.0959654 -0.0959654 0.000175663 0.150694
0.0166 -0.0933005 -0.0933005 0.000162844 0.146509
0.0166 -0.0933005 -0.0933005 0.000162844 0.146509
0.0168 -0.0904253 -0.0904252 0.000152424 0.141994
0.0168 -0.0904253 -0.0904252 0.000152424 0.141994
0.017 -0.0873826 -0.0873825 0.000144699 0.137216
0.017 -0.0873826 -0.0873825 0.000144699 0.137216
0.0172 -0.08421 -0.0842099 0.000139874 0.132235
0.0172 -0.08421 -0.0842099 0.000139874 0.132235
0.0174 -0.0809366 -0.0809365 0.000138068 0.127094
0.0174 -0.0809366 -0.0809365 0.000138068 0.127094
0.0176 -0.0775849 -0.0775849 0.000139292 0.121832
0.0176 -0.0775849 -0.0775849 0.000139292 0.121832
0.0178 -0.0741699 -0.0741698 0.000143467 0.116469
0.0178 -0.0741699 -0.0741698 0.000143467 0.116469
0.018 -0.0707001 -0.0707001 0.000150412 0.111021
0.018 -0.0707001 -0.0707001 0.000150412 0.111021
0.0182 -0.0671767 -0.0671766 0.000159864 0.105488
0.0182 -0.0671767 -0.0671766 0.000159864 0.105488
0.0184 -0.0635939 -0.0635939 0.000171482 0.0998619
0.0184 -0.0635939 -0.0635939 0.000171482 0.0998619
0.0186 -0.0599421 -0.0599421 0.00018486 0.0941272
0.0186 -0.0599421 -0.0599421 0.00018486 0.0941272
0.0188 -0.0562123 -0.0562122 0.00019955 0.0882701
0.0188 -0.0562123 -0.0562122 0.00019955 0.0882701
0.019 -0.0523889 -0.0523888 0.000215071 0.0822661
0.019 -0.0523889 -0.0523888 0.000215071 0.0822661
0.0192 -0.0484509 -0.0484508 0.000230933 0.0760821
0.0192 -0.0484509 -0.0484508 0.000230933 0.0760821
0.0194 -0.044384 -0.044384 0.000246653 0.0696957
0.0194 -0.044384 -0.044384 0.000246653 0.0696957
0.0196 -0.0401713 -0.0401713 0.000261775 0.0630802
0.0196 -0.0401713 -0.0401713 0.000261775 0.0630802
0.0198 -0.0358005 -0.0358005 0.000275879 0.0562166
0.0198 -0.0358005 -0.0358005 0.000275879 0.0562166
0.02 -0.0312605 -0.0312605 0.000288601 0.0490872
0.02 -0.0312605 -0.0312605 0.000288601 0.0490872
