# Time forceX forceY forceZ normalForce
0.0001 0.0105884 0.0105884 2.25824e-05 -0.0166395
0.0001 0.0105884 0.0105884 2.25824e-05 -0.0166395
0.0002 0.0133415 0.0133415 4.53902e-05 -0.0209587
0.0002 0.0133415 0.0133415 4.53902e-05 -0.0209587
0.0003 0.0151819 0.0151819 6.829e-05 -0.0238476
0.0003 0.0151819 0.0151819 6.829e-05 -0.0238476
0.0004 0.0173691 0.0173691 9.15824e-05 -0.0272818
0.0004 0.0173691 0.0173691 9.15824e-05 -0.0272818
0.0005 0.0198665 0.0198665 0.000115424 -0.0312032
0.0005 0.0198665 0.0198665 0.000115424 -0.0312032
0.0006 0.0225925 0.0225925 0.000139763 -0.0354837
0.0006 0.0225925 0.0225925 0.000139763 -0.0354837
0.0007 0.0254662 0.0254662 0.000164484 -0.0399962
0.0007 0.0254662 0.0254662 0.000164484 -0.0399962
0.0008 0.0284827 0.0284828 0.000189578 -0.044733
0.0008 0.0284827 0.0284828 0.000189578 -0.044733
0.0009 0.0316223 0.0316223 0.000214914 -0.049663
0.0009 0.0316223 0.0316223 0.000214914 -0.049663
0.001 0.0348724 0.0348724 0.000240491 -0.0547665
0.001 0.0348724 0.0348724 0.000240491 -0.0547665
0.0011 0.0382182 0.0382182 0.000266185 -0.0600202
0.0011 0.0382182 0.0382182 0.000266185 -0.0600202
0.0012 0.0416453 0.0416454 0.000292008 -0.0654016
0.0012 0.0416453 0.0416454 0.000292008 -0.0654016
0.0013 0.0451618 0.0451618 0.000317814 -0.0709232
0.0013 0.0451618 0.0451618 0.000317814 -0.0709232
0.0014 0.0487407 0.0487407 0.000343682 -0.0765428
0.0014 0.0487407 0.0487407 0.000343682 -0.0765428
0.0015 0.052381 0.052381 0.000369396 -0.0822589
0.0015 0.052381 0.052381 0.000369396 -0.0822589
0.0016 0.0560528 0.0560528 0.000395107 -0.0880243
0.0016 0.0560528 0.0560528 0.000395107 -0.0880243
0.0017 0.0597693 0.0597694 0.000420677 -0.09386
0.0017 0.0597693 0.0597694 0.000420677 -0.09386
0.0018 0.0635317 0.0635317 0.000446059 -0.0997677
0.0018 0.0635317 0.0635317 0.000446059 -0.0997677
0.0019 0.0672931 0.0672931 0.000471297 -0.105674
0.0019 0.0672931 0.0672931 0.000471297 -0.105674
0.002 0.0710855 0.0710855 0.000496319 -0.111629
0.002 0.0710855 0.0710855 0.000496319 -0.111629
0.0021 0.0748404 0.0748405 0.000521081 -0.117525
0.0021 0.0748404 0.0748405 0.000521081 -0.117525
0.0022 0.078659 0.0786591 0.000545353 -0.123521
0.0022 0.078659 0.0786591 0.000545353 -0.123521
0.0023 0.0824278 0.0824278 0.000569354 -0.129438
0.0023 0.0824278 0.0824278 0.000569354 -0.129438
0.0024 0.086177 0.086177 0.00059298 -0.135325
0.0024 0.086177 0.086177 0.00059298 -0.135325
0.0025 0.0900096 0.0900096 0.00061592 -0.141343
0.0025 0.0900096 0.0900096 0.00061592 -0.141343
0.0026 0.0937528 0.0937527 0.000638395 -0.147221
0.0026 0.0937528 0.0937527 0.000638395 -0.147221
0.0027 0.0974872 0.0974872 0.000660053 -0.153085
0.0027 0.0974872 0.0974872 0.000660053 -0.153085
0.0028 0.101214 0.101214 0.000680766 -0.158937
0.0028 0.101214 0.101214 0.000680766 -0.158937
0.0029 0.104911 0.104911 0.000700777 -0.164742
0.0029 0.104911 0.104911 0.000700777 -0.164742
0.003 0.108615 0.108615 0.000719595 -0.170559
0.003 0.108615 0.108615 0.000719595 -0.170559
0.0031 0.101805 0.101805 0.00071472 -0.159851
0.0031 0.101805 0.101805 0.00071472 -0.159851
0.0032 0.102647 0.102647 0.000708293 -0.161178
0.0032 0.102647 0.102647 0.000708293 -0.161178
0.0033 0.104433 0.104433 0.000700649 -0.163983
0.0033 0.104433 0.104433 0.000700649 -0.163983
0.0034 0.105849 0.105849 0.000691306 -0.166208
0.0034 0.105849 0.105849 0.000691306 -0.166208
0.0035 0.106942 0.106942 0.000680439 -0.167925
0.0035 0.106942 0.106942 0.000680439 -0.167925
0.0036 0.107722 0.107722 0.000667909 -0.169151
0.0036 0.107722 0.107722 0.000667909 -0.169151
0.0037 0.108378 0.108378 0.000653896 -0.17018
0.0037 0.108378 0.108378 0.000653896 -0.17018
0.0038 0.108914 0.108914 0.000638641 -0.171022
0.0038 0.108914 0.108914 0.000638641 -0.171022
0.0039 0.109238 0.109237 0.000622186 -0.171531
0.0039 0.109238 0.109237 0.000622186 -0.171531
0.004 0.109486 0.109486 0.000604803 -0.171922
0.004 0.109486 0.109486 0.000604803 -0.171922
0.0041 0.10959 0.10959 0.00058643 -0.172085
0.0041 0.10959 0.10959 0.00058643 -0.172085
0.0042 0.109614 0.109614 0.000567392 -0.172124
0.0042 0.109614 0.109614 0.000567392 -0.172124
0.0043 0.109555 0.109555 0.000547791 -0.172032
0.0043 0.109555 0.109555 0.000547791 -0.172032
0.0044 0.109398 0.109398 0.000527752 -0.171785
0.0044 0.109398 0.109398 0.000527752 -0.171785
0.0045 0.109242 0.109242 0.000507403 -0.171542
0.0045 0.109242 0.109242 0.000507403 -0.171542
0.0046 0.108989 0.108989 0.000486882 -0.171145
0.0046 0.108989 0.108989 0.000486882 -0.171145
0.0047 0.108691 0.108691 0.00046629 -0.170678
0.0047 0.108691 0.108691 0.00046629 -0.170678
0.0048 0.108373 0.108373 0.000445717 -0.170178
0.0048 0.108373 0.108373 0.000445717 -0.170178
0.0049 0.10801 0.10801 0.000425322 -0.169609
0.0049 0.10801 0.10801 0.000425322 -0.169609
0.005 0.107694 0.107694 0.00040524 -0.169113
0.005 0.107694 0.107694 0.00040524 -0.169113
0.0051 0.107309 0.107309 0.000385476 -0.168509
0.0051 0.107309 0.107309 0.000385476 -0.168509
0.0052 0.106923 0.106923 0.000366232 -0.167904
0.0052 0.106923 0.106923 0.000366232 -0.167904
0.0053 0.106536 0.106536 0.000347685 -0.167296
0.0053 0.106536 0.106536 0.000347685 -0.167296
0.0054 0.106153 0.106153 0.000329873 -0.166694
0.0054 0.106153 0.106153 0.000329873 -0.166694
0.0055 0.105766 0.105766 0.000313052 -0.166087
0.0055 0.105766 0.105766 0.000313052 -0.166087
0.0056 0.105376 0.105376 0.000297313 -0.165475
0.0056 0.105376 0.105376 0.000297313 -0.165475
0.0057 0.105007 0.105007 0.000282844 -0.164896
0.0057 0.105007 0.105007 0.000282844 -0.164896
0.0058 0.104618 0.104618 0.000269814 -0.164286
0.0058 0.104618 0.104618 0.000269814 -0.164286
0.0059 0.104249 0.104249 0.000258374 -0.163706
0.0059 0.104249 0.104249 0.000258374 -0.163706
0.006 0.103876 0.103876 0.000248621 -0.16312
0.006 0.103876 0.103876 0.000248621 -0.16312
0.0061 0.103508 0.103508 0.000240723 -0.162542
0.0061 0.103508 0.103508 0.000240723 -0.162542
0.0062 0.103142 0.103142 0.000234759 -0.161967
0.0062 0.103142 0.103142 0.000234759 -0.161967
0.0063 0.102771 0.102771 0.000230742 -0.161385
0.0063 0.102771 0.102771 0.000230742 -0.161385
0.0064 0.102398 0.102398 0.000228734 -0.160798
0.0064 0.102398 0.102398 0.000228734 -0.160798
0.0065 0.102018 0.102018 0.000228704 -0.160201
0.0065 0.102018 0.102018 0.000228704 -0.160201
0.0066 0.101631 0.101631 0.000230598 -0.159593
0.0066 0.101631 0.101631 0.000230598 -0.159593
0.0067 0.101242 0.101242 0.000234324 -0.158982
0.0067 0.101242 0.101242 0.000234324 -0.158982
0.0068 0.100817 0.100817 0.00023981 -0.158315
0.0068 0.100817 0.100817 0.00023981 -0.158315
0.0069 0.100379 0.100379 0.000247012 -0.157626
0.0069 0.100379 0.100379 0.000247012 -0.157626
0.007 0.0999272 0.0999272 0.000255528 -0.156917
0.007 0.0999272 0.0999272 0.000255528 -0.156917
0.0071 0.0994472 0.0994471 0.000265387 -0.156162
0.0071 0.0994472 0.0994471 0.000265387 -0.156162
0.0072 0.0989367 0.0989366 0.00027644 -0.155361
0.0072 0.0989367 0.0989366 0.00027644 -0.155361
0.0073 0.0983892 0.0983891 0.000288511 -0.1545
0.0073 0.0983892 0.0983891 0.000288511 -0.1545
0.0074 0.0977981 0.097798 0.00030141 -0.153572
0.0074 0.0977981 0.097798 0.00030141 -0.153572
0.0075 0.0971838 0.0971836 0.000314907 -0.152607
0.0075 0.0971838 0.0971836 0.000314907 -0.152607
0.0076 0.0965051 0.096505 0.000329064 -0.151541
0.0076 0.0965051 0.096505 0.000329064 -0.151541
0.0077 0.0958079 0.0958078 0.000343437 -0.150446
0.0077 0.0958079 0.0958078 0.000343437 -0.150446
0.0078 0.0949919 0.0949918 0.000358139 -0.149164
0.0078 0.0949919 0.0949918 0.000358139 -0.149164
0.0079 0.0941716 0.0941714 0.000372842 -0.147876
0.0079 0.0941716 0.0941714 0.000372842 -0.147876
0.008 0.0932787 0.0932786 0.000387529 -0.146474
0.008 0.0932787 0.0932786 0.000387529 -0.146474
0.0081 0.0923025 0.0923024 0.000402023 -0.144941
0.0081 0.0923025 0.0923024 0.000402023 -0.144941
0.0082 0.0912678 0.0912677 0.000416256 -0.143316
0.0082 0.0912678 0.0912677 0.000416256 -0.143316
0.0083 0.0901519 0.0901518 0.000429935 -0.141564
0.0083 0.0901519 0.0901518 0.000429935 -0.141564
0.0084 0.0889543 0.0889541 0.000443093 -0.139683
0.0084 0.0889543 0.0889541 0.000443093 -0.139683
0.0085 0.0876673 0.0876672 0.000455584 -0.137662
0.0085 0.0876673 0.0876672 0.000455584 -0.137662
0.0086 0.0863021 0.086302 0.000467287 -0.135518
0.0086 0.0863021 0.086302 0.000467287 -0.135518
0.0087 0.0848288 0.0848286 0.000478057 -0.133205
0.0087 0.0848288 0.0848286 0.000478057 -0.133205
0.0088 0.0832598 0.0832597 0.000487904 -0.130741
0.0088 0.0832598 0.0832597 0.000487904 -0.130741
0.0089 0.0815675 0.0815675 0.000496796 -0.128083
0.0089 0.0815675 0.0815675 0.000496796 -0.128083
0.009 0.0798182 0.0798181 0.000504482 -0.125336
0.009 0.0798182 0.0798181 0.000504482 -0.125336
0.0091 0.0779053 0.0779053 0.00051104 -0.122333
0.0091 0.0779053 0.0779053 0.00051104 -0.122333
0.0092 0.075905 0.075905 0.000516256 -0.119192
0.0092 0.075905 0.075905 0.000516256 -0.119192
0.0093 0.0737827 0.0737826 0.000520449 -0.115859
0.0093 0.0737827 0.0737826 0.000520449 -0.115859
0.0094 0.0715563 0.0715562 0.000523407 -0.112363
0.0094 0.0715563 0.0715562 0.000523407 -0.112363
0.0095 0.0690956 0.0690955 0.000525059 -0.108498
0.0095 0.0690956 0.0690955 0.000525059 -0.108498
0.0096 0.0665728 0.0665727 0.000525603 -0.104537
0.0096 0.0665728 0.0665727 0.000525603 -0.104537
0.0097 0.0639542 0.0639542 0.000524838 -0.100425
0.0097 0.0639542 0.0639542 0.000524838 -0.100425
0.0098 0.0611717 0.0611716 0.000523139 -0.0960553
0.0098 0.0611717 0.0611716 0.000523139 -0.0960553
0.0099 0.0582696 0.0582695 0.000520392 -0.0914981
0.0099 0.0582696 0.0582695 0.000520392 -0.0914981
0.01 0.0552267 0.0552266 0.000516834 -0.0867197
0.01 0.0552267 0.0552266 0.000516834 -0.0867197
0.0101 0.0519366 0.0519364 0.000512369 -0.081553
0.0101 0.0519366 0.0519364 0.000512369 -0.081553
0.0102 0.0486238 0.0486237 0.000507128 -0.0763509
0.0102 0.0486238 0.0486237 0.000507128 -0.0763509
0.0103 0.0451588 0.0451588 0.000501233 -0.0709097
0.0103 0.0451588 0.0451588 0.000501233 -0.0709097
0.0104 0.0415137 0.0415135 0.000494786 -0.0651855
0.0104 0.0415137 0.0415135 0.000494786 -0.0651855
0.0105 0.0377766 0.0377765 0.000487878 -0.0593171
0.0105 0.0377766 0.0377765 0.000487878 -0.0593171
0.0106 0.0338228 0.0338227 0.00048069 -0.0531084
0.0106 0.0338228 0.0338227 0.00048069 -0.0531084
0.0107 0.0298052 0.029805 0.000473348 -0.0467994
0.0107 0.0298052 0.029805 0.000473348 -0.0467994
0.0108 0.0256624 0.0256622 0.000465757 -0.0402939
0.0108 0.0256624 0.0256622 0.000465757 -0.0402939
0.0109 0.0213858 0.0213857 0.000458198 -0.0335784
0.0109 0.0213858 0.0213857 0.000458198 -0.0335784
0.011 0.0169889 0.0169888 0.000450824 -0.0266739
0.011 0.0169889 0.0169888 0.000450824 -0.0266739
0.0111 0.0124943 0.0124941 0.000443544 -0.019616
0.0111 0.0124943 0.0124941 0.000443544 -0.019616
0.0112 0.00789556 0.00789539 0.000436414 -0.0123946
0.0112 0.00789556 0.00789539 0.000436414 -0.0123946
0.0113 0.00319986 0.00319974 0.000429827 -0.00502109
0.0113 0.00319986 0.00319974 0.000429827 -0.00502109
0.0114 -0.00154995 -0.00155005 0.000423226 0.0024374
0.0114 -0.00154995 -0.00155005 0.000423226 0.0024374
0.0115 -0.00639982 -0.00639988 0.00041753 0.010053
0.0115 -0.00639982 -0.00639988 0.00041753 0.010053
0.0116 -0.0112673 -0.0112674 0.000411874 0.0176962
0.0116 -0.0112673 -0.0112674 0.000411874 0.0176962
0.0117 -0.0161974 -0.0161975 0.000407165 0.0254378
0.0117 -0.0161974 -0.0161975 0.000407165 0.0254378
0.0118 -0.0210971 -0.0210972 0.000402645 0.0331315
0.0118 -0.0210971 -0.0210972 0.000402645 0.0331315
0.0119 -0.0261632 -0.0261633 0.000399 0.0410865
0.0119 -0.0261632 -0.0261633 0.000399 0.0410865
0.012 -0.0310929 -0.031093 0.000395792 0.0488273
0.012 -0.0310929 -0.031093 0.000395792 0.0488273
0.0121 -0.036051 -0.0360511 0.000393073 0.0566127
0.0121 -0.036051 -0.0360511 0.000393073 0.0566127
0.0122 -0.040935 -0.0409351 0.00039105 0.0642817
0.0122 -0.040935 -0.0409351 0.00039105 0.0642817
0.0123 -0.045796 -0.0457961 0.000389528 0.0719147
0.0123 -0.045796 -0.0457961 0.000389528 0.0719147
0.0124 -0.0506396 -0.0506397 0.000388547 0.0795201
0.0124 -0.0506396 -0.0506397 0.000388547 0.0795201
0.0125 -0.0553296 -0.0553297 0.000387851 0.0868846
0.0125 -0.0553296 -0.0553297 0.000387851 0.0868846
0.0126 -0.0599727 -0.0599728 0.000387765 0.0941752
0.0126 -0.0599727 -0.0599728 0.000387765 0.0941752
0.0127 -0.0644694 -0.0644695 0.000387982 0.101236
0.0127 -0.0644694 -0.0644695 0.000387982 0.101236
0.0128 -0.0689012 -0.0689014 0.000388432 0.108195
0.0128 -0.0689012 -0.0689014 0.000388432 0.108195
0.0129 -0.0730646 -0.0730647 0.000389079 0.114732
0.0129 -0.0730646 -0.0730647 0.000389079 0.114732
0.013 -0.0771857 -0.0771858 0.000389889 0.121203
0.013 -0.0771857 -0.0771858 0.000389889 0.121203
0.0131 -0.081145 -0.0811452 0.000390601 0.127421
0.0131 -0.081145 -0.0811452 0.000390601 0.127421
0.0132 -0.0849004 -0.0849005 0.000391234 0.133317
0.0132 -0.0849004 -0.0849005 0.000391234 0.133317
0.0133 -0.0884262 -0.0884263 0.000391873 0.138854
0.0133 -0.0884262 -0.0884263 0.000391873 0.138854
0.0134 -0.0917779 -0.0917781 0.000392103 0.144117
0.0134 -0.0917779 -0.0917781 0.000392103 0.144117
0.0135 -0.0949324 -0.0949326 0.000391994 0.14907
0.0135 -0.0949324 -0.0949326 0.000391994 0.14907
0.0136 -0.0978647 -0.0978648 0.000391513 0.153674
0.0136 -0.0978647 -0.0978648 0.000391513 0.153674
0.0137 -0.100571 -0.100571 0.000390475 0.157924
0.0137 -0.100571 -0.100571 0.000390475 0.157924
0.0138 -0.103055 -0.103055 0.00038877 0.161824
0.0138 -0.103055 -0.103055 0.00038877 0.161824
0.0139 -0.105294 -0.105294 0.000386497 0.16534
0.0139 -0.105294 -0.105294 0.000386497 0.16534
0.014 -0.107328 -0.107329 0.000383418 0.168535
0.014 -0.107328 -0.107329 0.000383418 0.168535
0.0141 -0.109065 -0.109065 0.000379613 0.171261
0.0141 -0.109065 -0.109065 0.000379613 0.171261
0.0142 -0.110604 -0.110604 0.000374969 0.173679
0.0142 -0.110604 -0.110604 0.000374969 0.173679
0.0143 -0.111921 -0.111921 0.000369402 0.175747
0.0143 -0.111921 -0.111921 0.000369402 0.175747
0.0144 -0.11298 -0.11298 0.000362963 0.17741
0.0144 -0.11298 -0.11298 0.000362963 0.17741
0.0145 -0.113803 -0.113803 0.000355669 0.178702
0.0145 -0.113803 -0.113803 0.000355669 0.178702
0.0146 -0.114416 -0.114416 0.000347475 0.179665
0.0146 -0.114416 -0.114416 0.000347475 0.179665
0.0147 -0.11479 -0.11479 0.000338405 0.180251
0.0147 -0.11479 -0.11479 0.000338405 0.180251
0.0148 -0.114958 -0.114958 0.000328458 0.180516
0.0148 -0.114958 -0.114958 0.000328458 0.180516
0.0149 -0.114914 -0.114914 0.000317748 0.180446
0.0149 -0.114914 -0.114914 0.000317748 0.180446
0.015 -0.11467 -0.11467 0.000306301 0.180064
0.015 -0.11467 -0.11467 0.000306301 0.180064
0.0151 -0.114234 -0.114234 0.000294172 0.179379
0.0151 -0.114234 -0.114234 0.000294172 0.179379
0.0152 -0.113622 -0.113622 0.000281433 0.178419
0.0152 -0.113622 -0.113622 0.000281433 0.178419
0.0153 -0.112833 -0.112833 0.000268165 0.17718
0.0153 -0.112833 -0.112833 0.000268165 0.17718
0.0154 -0.111888 -0.111888 0.000254469 0.175696
0.0154 -0.111888 -0.111888 0.000254469 0.175696
0.0155 -0.110787 -0.110788 0.000240438 0.173968
0.0155 -0.110787 -0.110788 0.000240438 0.173968
0.0156 -0.109564 -0.109564 0.000226183 0.172047
0.0156 -0.109564 -0.109564 0.000226183 0.172047
0.0157 -0.108205 -0.108206 0.000211832 0.169914
0.0157 -0.108205 -0.108206 0.000211832 0.169914
0.0158 -0.106738 -0.106738 0.000197491 0.16761
0.0158 -0.106738 -0.106738 0.000197491 0.16761
0.0159 -0.10517 -0.10517 0.000183285 0.165148
0.0159 -0.10517 -0.10517 0.000183285 0.165148
0.016 -0.103513 -0.103513 0.000169353 0.162546
0.016 -0.103513 -0.103513 0.000169353 0.162546
0.0161 -0.101781 -0.101781 0.000155778 0.159826
0.0161 -0.101781 -0.101781 0.000155778 0.159826
0.0162 -0.0999856 -0.0999858 0.000142753 0.157007
0.0162 -0.0999856 -0.0999858 0.000142753 0.157007
0.0163 -0.0981387 -0.0981389 0.000130292 0.154107
0.0163 -0.0981387 -0.0981389 0.000130292 0.154107
0.0164 -0.0962458 -0.096246 0.000118593 0.151135
0.0164 -0.0962458 -0.096246 0.000118593 0.151135
0.0165 -0.0943212 -0.0943215 0.000107777 0.148113
0.0165 -0.0943212 -0.0943215 0.000107777 0.148113
0.0166 -0.0923767 -0.0923769 9.78693e-05 0.14506
0.0166 -0.0923767 -0.0923769 9.78693e-05 0.14506
0.0167 -0.0904248 -0.090425 8.90714e-05 0.141995
0.0167 -0.0904248 -0.090425 8.90714e-05 0.141995
0.0168 -0.0884577 -0.0884579 8.13446e-05 0.138906
0.0168 -0.0884577 -0.0884579 8.13446e-05 0.138906
0.0169 -0.0865145 -0.0865148 7.48372e-05 0.135855
0.0169 -0.0865145 -0.0865148 7.48372e-05 0.135855
0.017 -0.0845456 -0.0845458 6.96307e-05 0.132763
0.017 -0.0845456 -0.0845458 6.96307e-05 0.132763
0.0171 -0.082625 -0.0826252 6.57698e-05 0.129747
0.0171 -0.082625 -0.0826252 6.57698e-05 0.129747
0.0172 -0.0807233 -0.0807235 6.32817e-05 0.126761
0.0172 -0.0807233 -0.0807235 6.32817e-05 0.126761
0.0173 -0.0788295 -0.0788296 6.22281e-05 0.123787
0.0173 -0.0788295 -0.0788296 6.22281e-05 0.123787
0.0174 -0.0769748 -0.076975 6.2485e-05 0.120875
0.0174 -0.0769748 -0.076975 6.2485e-05 0.120875
0.0175 -0.0751583 -0.0751584 6.42523e-05 0.118022
0.0175 -0.0751583 -0.0751584 6.42523e-05 0.118022
0.0176 -0.0733679 -0.073368 6.74463e-05 0.115211
0.0176 -0.0733679 -0.073368 6.74463e-05 0.115211
0.0177 -0.0716097 -0.0716097 7.2014e-05 0.11245
0.0177 -0.0716097 -0.0716097 7.2014e-05 0.11245
0.0178 -0.069881 -0.069881 7.78362e-05 0.109735
0.0178 -0.069881 -0.069881 7.78362e-05 0.109735
0.0179 -0.0681778 -0.0681778 8.50633e-05 0.107061
0.0179 -0.0681778 -0.0681778 8.50633e-05 0.107061
0.018 -0.0665474 -0.0665474 9.3533e-05 0.1045
0.018 -0.0665474 -0.0665474 9.3533e-05 0.1045
0.0181 -0.0649211 -0.0649211 0.000103103 0.101947
0.0181 -0.0649211 -0.0649211 0.000103103 0.101947
0.0182 -0.0632767 -0.0632766 0.000113704 0.0993641
0.0182 -0.0632767 -0.0632766 0.000113704 0.0993641
0.0183 -0.0617112 -0.0617111 0.000125354 0.0969056
0.0183 -0.0617112 -0.0617111 0.000125354 0.0969056
0.0184 -0.0601093 -0.0601093 0.000137818 0.0943901
0.0184 -0.0601093 -0.0601093 0.000137818 0.0943901
0.0185 -0.0585593 -0.0585593 0.000151129 0.091956
0.0185 -0.0585593 -0.0585593 0.000151129 0.091956
0.0186 -0.0569926 -0.0569925 0.000165048 0.0894955
0.0186 -0.0569926 -0.0569925 0.000165048 0.0894955
0.0187 -0.0554037 -0.0554036 0.000179447 0.0870002
0.0187 -0.0554037 -0.0554036 0.000179447 0.0870002
0.0188 -0.053837 -0.0538369 0.000194286 0.0845399
0.0188 -0.053837 -0.0538369 0.000194286 0.0845399
0.0189 -0.0522391 -0.052239 0.000209273 0.0820304
0.0189 -0.0522391 -0.052239 0.000209273 0.0820304
0.019 -0.0506311 -0.050631 0.000224369 0.0795052
0.019 -0.0506311 -0.050631 0.000224369 0.0795052
0.0191 -0.0489679 -0.0489678 0.000239507 0.0768932
0.0191 -0.0489679 -0.0489678 0.000239507 0.0768932
0.0192 -0.0472565 -0.0472564 0.000254503 0.0742056
0.0192 -0.0472565 -0.0472564 0.000254503 0.0742056
0.0193 -0.0455498 -0.0455497 0.000269168 0.0715255
0.0193 -0.0455498 -0.0455497 0.000269168 0.0715255
0.0194 -0.0437403 -0.0437401 0.000283398 0.0686837
0.0194 -0.0437403 -0.0437401 0.000283398 0.0686837
0.0195 -0.0418985 -0.0418984 0.000297137 0.0657914
0.0195 -0.0418985 -0.0418984 0.000297137 0.0657914
0.0196 -0.0399919 -0.0399918 0.000310209 0.0627973
0.0196 -0.0399919 -0.0399918 0.000310209 0.0627973
0.0197 -0.0380031 -0.038003 0.000322579 0.0596741
0.0197 -0.0380031 -0.038003 0.000322579 0.0596741
0.0198 -0.0359628 -0.0359626 0.000334073 0.05647
0.0198 -0.0359628 -0.0359626 0.000334073 0.05647
0.0199 -0.033824 -0.0338238 0.000344625 0.0531113
0.0199 -0.033824 -0.0338238 0.000344625 0.0531113
0.02 -0.0316223 -0.0316222 0.000354288 0.0496539
0.02 -0.0316223 -0.0316222 0.000354288 0.0496539
