# Time forceX forceY forceZ normalForce
0.0001 0 0 0 0
0.0001 0 0 0 0
0.0001 0.0833247 0.0833247 1.08608e-05 -0.130829
0.0001 0.0833247 0.0833247 1.08608e-05 -0.130829
0.0001 0.166649 0.166649 2.17215e-05 -0.261658
0.0001 0.166649 0.166649 2.17215e-05 -0.261658
0.0001 0.0312954 0.0312954 1.88946e-07 -0.049143
0.0001 0.0312954 0.0312954 1.88946e-07 -0.049143
0.0001 0.0213164 0.0213164 1.67376e-05 -0.0334748
0.0001 0.0213164 0.0213164 1.67376e-05 -0.0334748
0.0001 0.0217765 0.0217765 -3.60771e-05 -0.0342018
0.0001 0.0217765 0.0217765 -3.60771e-05 -0.0342018
0.0001 0.0218373 0.0218373 -2.54883e-05 -0.0342971
0.0001 0.0218373 0.0218373 -2.54883e-05 -0.0342971
0.0001 0.0101617 0.0101617 -6.58123e-05 -0.015971
0.0001 0.0101617 0.0101617 -6.58123e-05 -0.015971
0.0001 0.0092834 0.00928341 -4.58616e-05 -0.0145917
0.0001 0.0092834 0.00928341 -4.58616e-05 -0.0145917
0.0001 0.0112365 0.0112365 -6.43887e-05 -0.0176591
0.0001 0.0112365 0.0112365 -6.43887e-05 -0.0176591
0.0001 0.0115268 0.0115268 -3.93323e-05 -0.0181141
0.0001 0.0115268 0.0115268 -3.93323e-05 -0.0181141
0.0001 0.0098261 0.00982609 -3.88851e-05 -0.0154433
0.0001 0.0098261 0.00982609 -3.88851e-05 -0.0154433
0.0001 0.00978995 0.00978994 -1.68164e-05 -0.0153857
0.0001 0.00978995 0.00978994 -1.68164e-05 -0.0153857
0.0001 0.010452 0.010452 -1.00291e-05 -0.0164235
0.0001 0.010452 0.010452 -1.00291e-05 -0.0164235
0.0001 0.0105281 0.0105281 3.77437e-06 -0.0165426
0.0001 0.0105281 0.0105281 3.77437e-06 -0.0165426
0.0001 0.0102915 0.0102915 8.91282e-06 -0.0161706
0.0001 0.0102915 0.0102915 8.91282e-06 -0.0161706
0.0001 0.0102874 0.0102874 1.57423e-05 -0.016164
0.0001 0.0102874 0.0102874 1.57423e-05 -0.016164
0.0001 0.0103779 0.0103779 1.82521e-05 -0.016306
0.0001 0.0103779 0.0103779 1.82521e-05 -0.016306
0.0001 0.0103846 0.0103846 2.12147e-05 -0.0163164
0.0001 0.0103846 0.0103846 2.12147e-05 -0.0163164
0.0001 0.0103567 0.0103567 2.2231e-05 -0.0162726
0.0001 0.0103567 0.0103567 2.2231e-05 -0.0162726
0.0001 0.0103551 0.0103551 2.34183e-05 -0.0162701
0.0001 0.0103551 0.0103551 2.34183e-05 -0.0162701
0.0001 0.0103636 0.0103636 2.37965e-05 -0.0162835
0.0001 0.0103636 0.0103636 2.37965e-05 -0.0162835
0.0001 0.010364 0.010364 2.42411e-05 -0.0162842
0.0001 0.010364 0.010364 2.42411e-05 -0.0162842
0.0001 0.0103616 0.0103616 2.43747e-05 -0.0162804
0.0001 0.0103616 0.0103616 2.43747e-05 -0.0162804
0.0001 0.0103614 0.0103614 2.45288e-05 -0.0162801
0.0001 0.0103614 0.0103614 2.45288e-05 -0.0162801
0.0001 0.0103621 0.010362 2.45744e-05 -0.0162811
0.0001 0.0103621 0.010362 2.45744e-05 -0.0162811
0.0001 0.0103621 0.0103621 2.46228e-05 -0.0162811
0.0001 0.0103621 0.0103621 2.46228e-05 -0.0162811
0.0001 0.0103619 0.0103619 2.46374e-05 -0.0162808
0.0001 0.0103619 0.0103619 2.46374e-05 -0.0162808
0.0001 0.0103619 0.0103619 2.46507e-05 -0.0162808
0.0001 0.0103619 0.0103619 2.46507e-05 -0.0162808
0.0001 0.0103619 0.0103619 2.4655e-05 -0.0162809
0.0001 0.0103619 0.0103619 2.4655e-05 -0.0162809
0.0001 0.0103619 0.0103619 2.4658e-05 -0.0162809
0.0001 0.0103619 0.0103619 2.4658e-05 -0.0162809
0.0001 0.0103619 0.0103619 2.46591e-05 -0.0162809
0.0001 0.0103619 0.0103619 2.46591e-05 -0.0162809
0.0001 0.0103619 0.0103619 2.46595e-05 -0.0162809
0.0001 0.0103619 0.0103619 2.46595e-05 -0.0162809
0.0001 0.0103619 0.0103619 2.46598e-05 -0.0162809
0.0001 0.0103619 0.0103619 2.46598e-05 -0.0162809
0.0002 0.0103619 0.0103619 2.46599e-05 -0.0162809
0.0002 0.0103619 0.0103619 2.46599e-05 -0.0162809
0.0002 0.0133593 0.0133589 -0.000207164 -0.0209978
0.0002 0.0133593 0.0133589 -0.000207164 -0.0209978
0.0002 0.0133553 0.0133551 1.59404e-05 -0.0209793
0.0002 0.0133553 0.0133551 1.59404e-05 -0.0209793
0.0002 0.0133615 0.0133615 2.71711e-05 -0.0209883
0.0002 0.0133615 0.0133615 2.71711e-05 -0.0209883
0.0002 0.013358 0.0133582 3.14429e-05 -0.0209851
0.0002 0.013358 0.0133582 3.14429e-05 -0.0209851
0.0002 0.0133584 0.0133583 3.42883e-05 -0.0209855
0.0002 0.0133584 0.0133583 3.42883e-05 -0.0209855
0.0002 0.0133598 0.0133597 3.41476e-05 -0.0209868
0.0002 0.0133598 0.0133597 3.41476e-05 -0.0209868
0.0002 0.0133598 0.0133599 3.44704e-05 -0.020987
0.0002 0.0133598 0.0133599 3.44704e-05 -0.020987
0.0002 0.0133597 0.0133598 3.44023e-05 -0.0209869
0.0002 0.0133597 0.0133598 3.44023e-05 -0.0209869
0.0002 0.0133598 0.0133597 3.44416e-05 -0.0209869
0.0002 0.0133598 0.0133597 3.44416e-05 -0.0209869
0.0002 0.0133598 0.0133598 3.44079e-05 -0.020987
0.0002 0.0133598 0.0133598 3.44079e-05 -0.020987
0.0002 0.0133598 0.0133599 3.44121e-05 -0.020987
0.0002 0.0133598 0.0133599 3.44121e-05 -0.020987
0.0002 0.0133598 0.0133598 3.43937e-05 -0.020987
0.0002 0.0133598 0.0133598 3.43937e-05 -0.020987
0.0002 0.0133598 0.0133598 3.43901e-05 -0.020987
0.0002 0.0133598 0.0133598 3.43901e-05 -0.020987
0.0002 0.0133598 0.0133598 3.4382e-05 -0.020987
0.0002 0.0133598 0.0133598 3.4382e-05 -0.020987
0.0002 0.0133598 0.0133598 3.43808e-05 -0.020987
0.0002 0.0133598 0.0133598 3.43808e-05 -0.020987
0.0003 0.0133599 0.0133599 3.43799e-05 -0.0209872
0.0003 0.0133599 0.0133599 3.43799e-05 -0.0209872
0.0003 0.0151945 0.0151872 0.000314403 -0.023874
0.0003 0.0151945 0.0151872 0.000314403 -0.023874
0.0003 0.0153125 0.0152984 4.74738e-05 -0.0240386
0.0003 0.0153125 0.0152984 4.74738e-05 -0.0240386
0.0003 0.0152864 0.0153083 3.5909e-05 -0.0240257
0.0003 0.0152864 0.0153083 3.5909e-05 -0.0240257
0.0003 0.0152878 0.0153011 3.23085e-05 -0.0240218
0.0003 0.0152878 0.0153011 3.23085e-05 -0.0240218
0.0003 0.0152935 0.0152873 2.97687e-05 -0.0240152
0.0003 0.0152935 0.0152873 2.97687e-05 -0.0240152
0.0003 0.0152927 0.0152896 2.8813e-05 -0.0240177
0.0003 0.0152927 0.0152896 2.8813e-05 -0.0240177
0.0003 0.0152907 0.0152914 2.88337e-05 -0.0240176
0.0003 0.0152907 0.0152914 2.88337e-05 -0.0240176
0.0003 0.0152904 0.015292 2.89623e-05 -0.0240177
0.0003 0.0152904 0.015292 2.89623e-05 -0.0240177
0.0003 0.0152921 0.0152896 2.90767e-05 -0.0240172
0.0003 0.0152921 0.0152896 2.90767e-05 -0.0240172
0.0003 0.0152913 0.0152904 2.90918e-05 -0.0240171
0.0003 0.0152913 0.0152904 2.90918e-05 -0.0240171
0.0003 0.0152905 0.015291 2.91186e-05 -0.024017
0.0003 0.0152905 0.015291 2.91186e-05 -0.024017
0.0003 0.0152908 0.0152908 2.91094e-05 -0.0240171
0.0003 0.0152908 0.0152908 2.91094e-05 -0.0240171
0.0003 0.0152908 0.0152908 2.91091e-05 -0.024017
0.0003 0.0152908 0.0152908 2.91091e-05 -0.024017
0.0003 0.0152908 0.0152908 2.91054e-05 -0.024017
0.0003 0.0152908 0.0152908 2.91054e-05 -0.024017
0.0003 0.0152908 0.0152908 2.91027e-05 -0.0240171
0.0003 0.0152908 0.0152908 2.91027e-05 -0.0240171
0.0004 0.0152914 0.0152914 2.90969e-05 -0.024018
0.0004 0.0152914 0.0152914 2.90969e-05 -0.024018
0.0004 0.017456 0.0175098 -6.8397e-05 -0.0274608
0.0004 0.017456 0.0175098 -6.8397e-05 -0.0274608
0.0004 0.0174732 0.0175293 3.32652e-05 -0.0274863
0.0004 0.0174732 0.0175293 3.32652e-05 -0.0274863
0.0004 0.0174953 0.0175058 2.24913e-05 -0.0274853
0.0004 0.0174953 0.0175058 2.24913e-05 -0.0274853
0.0004 0.0175098 0.0174919 2.18097e-05 -0.0274858
0.0004 0.0175098 0.0174919 2.18097e-05 -0.0274858
0.0004 0.0175029 0.017499 1.819e-05 -0.027486
0.0004 0.0175029 0.017499 1.819e-05 -0.027486
0.0004 0.0174984 0.0175036 1.65903e-05 -0.0274862
0.0004 0.0174984 0.0175036 1.65903e-05 -0.0274862
0.0004 0.0174989 0.0175026 1.60017e-05 -0.0274858
0.0004 0.0174989 0.0175026 1.60017e-05 -0.0274858
0.0004 0.0175009 0.0175005 1.50793e-05 -0.0274857
0.0004 0.0175009 0.0175005 1.50793e-05 -0.0274857
0.0004 0.0175006 0.0175006 1.5108e-05 -0.0274855
0.0004 0.0175006 0.0175006 1.5108e-05 -0.0274855
0.0004 0.0175005 0.0175006 1.52423e-05 -0.0274855
0.0004 0.0175005 0.0175006 1.52423e-05 -0.0274855
0.0004 0.0175006 0.0175005 1.52466e-05 -0.0274855
0.0004 0.0175006 0.0175005 1.52466e-05 -0.0274855
0.0004 0.0175006 0.0175005 1.52513e-05 -0.0274855
0.0004 0.0175006 0.0175005 1.52513e-05 -0.0274855
0.0004 0.0175005 0.0175005 1.52517e-05 -0.0274855
0.0004 0.0175005 0.0175005 1.52517e-05 -0.0274855
0.0005 0.0175005 0.0175005 1.52488e-05 -0.0274854
0.0005 0.0175005 0.0175005 1.52488e-05 -0.0274854
0.0005 0.0200497 0.0199747 -1.1085e-05 -0.0314258
0.0005 0.0200497 0.0199747 -1.1085e-05 -0.0314258
0.0005 0.0200123 0.0200246 8.16698e-07 -0.0314383
0.0005 0.0200123 0.0200246 8.16698e-07 -0.0314383
0.0005 0.020016 0.0200162 -6.26196e-06 -0.0314345
0.0005 0.020016 0.0200162 -6.26196e-06 -0.0314345
0.0005 0.0200181 0.0200159 -4.49319e-06 -0.031436
0.0005 0.0200181 0.0200159 -4.49319e-06 -0.031436
0.0005 0.0200174 0.0200171 -4.02692e-06 -0.0314361
0.0005 0.0200174 0.0200171 -4.02692e-06 -0.0314361
0.0005 0.0200175 0.0200174 -3.2373e-06 -0.0314363
0.0005 0.0200175 0.0200174 -3.2373e-06 -0.0314363
0.0005 0.0200174 0.0200173 -3.02023e-06 -0.0314362
0.0005 0.0200174 0.0200173 -3.02023e-06 -0.0314362
0.0005 0.0200173 0.0200173 -2.81774e-06 -0.0314362
0.0005 0.0200173 0.0200173 -2.81774e-06 -0.0314362
0.0005 0.0200173 0.0200173 -2.80917e-06 -0.0314362
0.0005 0.0200173 0.0200173 -2.80917e-06 -0.0314362
0.0005 0.0200173 0.0200173 -2.77835e-06 -0.0314362
0.0005 0.0200173 0.0200173 -2.77835e-06 -0.0314362
0.0006 0.0200174 0.0200174 -2.76603e-06 -0.0314364
0.0006 0.0200174 0.0200174 -2.76603e-06 -0.0314364
0.0006 0.0227355 0.022747 -3.2003e-05 -0.0357129
0.0006 0.0227355 0.022747 -3.2003e-05 -0.0357129
0.0006 0.0227387 0.0227433 -1.23151e-05 -0.0357127
0.0006 0.0227387 0.0227433 -1.23151e-05 -0.0357127
0.0006 0.022744 0.0227432 -2.39111e-05 -0.0357176
0.0006 0.022744 0.0227432 -2.39111e-05 -0.0357176
0.0006 0.0227445 0.022745 -2.20595e-05 -0.0357181
0.0006 0.0227445 0.022745 -2.20595e-05 -0.0357181
0.0006 0.0227435 0.0227437 -2.30537e-05 -0.0357161
0.0006 0.0227435 0.0227437 -2.30537e-05 -0.0357161
0.0006 0.0227433 0.0227433 -2.25277e-05 -0.0357156
0.0006 0.0227433 0.0227433 -2.25277e-05 -0.0357156
0.0006 0.0227431 0.0227431 -2.2654e-05 -0.0357152
0.0006 0.0227431 0.0227431 -2.2654e-05 -0.0357152
0.0006 0.0227429 0.0227429 -2.25412e-05 -0.035715
0.0006 0.0227429 0.0227429 -2.25412e-05 -0.035715
0.0006 0.0227428 0.0227428 -2.25577e-05 -0.0357149
0.0006 0.0227428 0.0227428 -2.25577e-05 -0.0357149
0.0006 0.0227428 0.0227428 -2.25392e-05 -0.0357149
0.0006 0.0227428 0.0227428 -2.25392e-05 -0.0357149
0.0007 0.0227385 0.0227385 -2.25385e-05 -0.0357082
0.0007 0.0227385 0.0227385 -2.25385e-05 -0.0357082
0.0007 0.0256325 0.0256538 4.49923e-05 -0.040269
0.0007 0.0256325 0.0256538 4.49923e-05 -0.040269
0.0007 0.0256315 0.0256322 -3.6956e-05 -0.040251
0.0007 0.0256315 0.0256322 -3.6956e-05 -0.040251
0.0007 0.0256316 0.0256319 -4.51011e-05 -0.0402508
0.0007 0.0256316 0.0256319 -4.51011e-05 -0.0402508
0.0007 0.0256322 0.0256331 -4.26477e-05 -0.0402517
0.0007 0.0256322 0.0256331 -4.26477e-05 -0.0402517
0.0007 0.0256321 0.0256322 -4.30471e-05 -0.0402508
0.0007 0.0256321 0.0256322 -4.30471e-05 -0.0402508
0.0007 0.0256322 0.0256323 -4.24825e-05 -0.040251
0.0007 0.0256322 0.0256323 -4.24825e-05 -0.040251
0.0007 0.0256323 0.0256323 -4.24233e-05 -0.0402511
0.0007 0.0256323 0.0256323 -4.24233e-05 -0.0402511
0.0007 0.0256323 0.0256324 -4.23399e-05 -0.0402511
0.0007 0.0256323 0.0256324 -4.23399e-05 -0.0402511
0.0007 0.0256324 0.0256324 -4.23151e-05 -0.0402512
0.0007 0.0256324 0.0256324 -4.23151e-05 -0.0402512
0.0008 0.0256333 0.0256334 -4.22962e-05 -0.0402527
0.0008 0.0256333 0.0256334 -4.22962e-05 -0.0402527
0.0008 0.0286999 0.0287054 5.8468e-05 -0.0450717
0.0008 0.0286999 0.0287054 5.8468e-05 -0.0450717
0.0008 0.0286668 0.0286673 -4.66717e-05 -0.0450146
0.0008 0.0286668 0.0286673 -4.66717e-05 -0.0450146
0.0008 0.028662 0.0286624 -6.15807e-05 -0.0450077
0.0008 0.028662 0.0286624 -6.15807e-05 -0.0450077
0.0008 0.0286626 0.0286627 -6.07808e-05 -0.0450085
0.0008 0.0286626 0.0286627 -6.07808e-05 -0.0450085
0.0008 0.0286619 0.0286618 -6.09552e-05 -0.0450072
0.0008 0.0286619 0.0286618 -6.09552e-05 -0.0450072
0.0008 0.0286627 0.0286627 -6.04771e-05 -0.0450085
0.0008 0.0286627 0.0286627 -6.04771e-05 -0.0450085
0.0008 0.0286626 0.0286626 -6.04983e-05 -0.0450083
0.0008 0.0286626 0.0286626 -6.04983e-05 -0.0450083
0.0008 0.0286626 0.0286626 -6.04753e-05 -0.0450083
0.0008 0.0286626 0.0286626 -6.04753e-05 -0.0450083
0.0009 0.0286617 0.0286617 -6.04907e-05 -0.0450069
0.0009 0.0286617 0.0286617 -6.04907e-05 -0.0450069
0.0009 0.0318217 0.0318157 -5.14017e-05 -0.0499647
0.0009 0.0318217 0.0318157 -5.14017e-05 -0.0499647
0.0009 0.0318169 0.0318151 -8.05907e-05 -0.0499593
0.0009 0.0318169 0.0318151 -8.05907e-05 -0.0499593
0.0009 0.0318166 0.0318169 -7.67406e-05 -0.0499605
0.0009 0.0318166 0.0318169 -7.67406e-05 -0.0499605
0.0009 0.0318148 0.0318149 -7.61168e-05 -0.0499574
0.0009 0.0318148 0.0318149 -7.61168e-05 -0.0499574
0.0009 0.031816 0.0318159 -7.6149e-05 -0.049959
0.0009 0.031816 0.0318159 -7.6149e-05 -0.049959
0.0009 0.0318156 0.0318157 -7.59353e-05 -0.0499584
0.0009 0.0318156 0.0318157 -7.59353e-05 -0.0499584
0.0009 0.0318156 0.0318156 -7.59566e-05 -0.0499583
0.0009 0.0318156 0.0318156 -7.59566e-05 -0.0499583
0.0009 0.0318158 0.0318158 -7.59332e-05 -0.0499586
0.0009 0.0318158 0.0318158 -7.59332e-05 -0.0499586
0.0009 0.0318157 0.0318157 -7.59216e-05 -0.0499586
0.0009 0.0318157 0.0318157 -7.59216e-05 -0.0499586
0.001 0.031816 0.031816 -7.59224e-05 -0.049959
0.001 0.031816 0.031816 -7.59224e-05 -0.049959
0.001 0.0351862 0.0351692 -6.42662e-05 -0.0552423
0.001 0.0351862 0.0351692 -6.42662e-05 -0.0552423
0.001 0.035162 0.0351617 -7.29864e-05 -0.0552105
0.001 0.035162 0.0351617 -7.29864e-05 -0.0552105
0.001 0.0351019 0.0351038 -7.95544e-05 -0.0551198
0.001 0.0351019 0.0351038 -7.95544e-05 -0.0551198
0.001 0.0350882 0.0350876 -8.56497e-05 -0.0550963
0.001 0.0350882 0.0350876 -8.56497e-05 -0.0550963
0.001 0.0350797 0.0350789 -8.77027e-05 -0.0550818
0.001 0.0350797 0.0350789 -8.77027e-05 -0.0550818
0.001 0.0350801 0.03508 -8.76064e-05 -0.0550831
0.001 0.0350801 0.03508 -8.76064e-05 -0.0550831
0.001 0.0350792 0.0350793 -8.77679e-05 -0.0550819
0.001 0.0350792 0.0350793 -8.77679e-05 -0.0550819
0.001 0.035079 0.0350789 -8.78009e-05 -0.0550815
0.001 0.035079 0.0350789 -8.78009e-05 -0.0550815
0.001 0.0350791 0.035079 -8.7833e-05 -0.0550817
0.001 0.0350791 0.035079 -8.7833e-05 -0.0550817
0.0011 0.0350862 0.0350862 -8.78415e-05 -0.0550929
0.0011 0.0350862 0.0350862 -8.78415e-05 -0.0550929
0.0011 0.0383038 0.0383158 -5.69129e-05 -0.0601442
0.0011 0.0383038 0.0383158 -5.69129e-05 -0.0601442
0.0011 0.0385691 0.0385627 -4.89898e-05 -0.0605545
0.0011 0.0385691 0.0385627 -4.89898e-05 -0.0605545
0.0011 0.0383967 0.0383929 -9.4559e-05 -0.0602846
0.0011 0.0383967 0.0383929 -9.4559e-05 -0.0602846
0.0011 0.038412 0.0384113 -8.93198e-05 -0.0603136
0.0011 0.038412 0.0384113 -8.93198e-05 -0.0603136
0.0011 0.0384171 0.0384146 -9.49525e-05 -0.0603203
0.0011 0.0384171 0.0384146 -9.49525e-05 -0.0603203
0.0011 0.0384363 0.0384351 -9.43476e-05 -0.0603524
0.0011 0.0384363 0.0384351 -9.43476e-05 -0.0603524
0.0011 0.0384377 0.0384374 -9.58206e-05 -0.0603548
0.0011 0.0384377 0.0384374 -9.58206e-05 -0.0603548
0.0011 0.0384377 0.0384375 -9.54507e-05 -0.0603545
0.0011 0.0384377 0.0384375 -9.54507e-05 -0.0603545
0.0011 0.0384387 0.0384386 -9.58553e-05 -0.060356
0.0011 0.0384387 0.0384386 -9.58553e-05 -0.060356
0.0011 0.0384387 0.0384386 -9.57658e-05 -0.060356
0.0011 0.0384387 0.0384386 -9.57658e-05 -0.060356
0.0011 0.0384389 0.0384388 -9.58107e-05 -0.0603564
0.0011 0.0384389 0.0384388 -9.58107e-05 -0.0603564
0.0011 0.0384389 0.0384389 -9.58468e-05 -0.0603565
0.0011 0.0384389 0.0384389 -9.58468e-05 -0.0603565
0.0011 0.038439 0.038439 -9.5859e-05 -0.0603566
0.0011 0.038439 0.038439 -9.5859e-05 -0.0603566
0.0012 0.0384377 0.0384378 -9.58627e-05 -0.0603547
0.0012 0.0384377 0.0384378 -9.58627e-05 -0.0603547
0.0012 0.0415474 0.0415076 -2.74271e-05 -0.0652411
0.0012 0.0415474 0.0415076 -2.74271e-05 -0.0652411
0.0012 0.0418633 0.0418767 -9.77812e-05 -0.065746
0.0012 0.0418633 0.0418767 -9.77812e-05 -0.065746
0.0012 0.0418687 0.0418727 -9.88169e-05 -0.0657465
0.0012 0.0418687 0.0418727 -9.88169e-05 -0.0657465
0.0012 0.0418785 0.0418795 -9.99569e-05 -0.0657567
0.0012 0.0418785 0.0418795 -9.99569e-05 -0.0657567
0.0012 0.0418903 0.0418891 -9.90453e-05 -0.0657737
0.0012 0.0418903 0.0418891 -9.90453e-05 -0.0657737
0.0012 0.0418874 0.041887 -0.000100293 -0.0657703
0.0012 0.0418874 0.041887 -0.000100293 -0.0657703
0.0012 0.041888 0.0418879 -9.98233e-05 -0.0657715
0.0012 0.041888 0.0418879 -9.98233e-05 -0.0657715
0.0012 0.0418884 0.0418883 -9.99661e-05 -0.0657718
0.0012 0.0418884 0.0418883 -9.99661e-05 -0.0657718
0.0012 0.0418884 0.0418883 -9.99563e-05 -0.0657719
0.0012 0.0418884 0.0418883 -9.99563e-05 -0.0657719
0.0012 0.0418884 0.0418884 -9.99543e-05 -0.065772
0.0012 0.0418884 0.0418884 -9.99543e-05 -0.065772
0.0013 0.0418912 0.0418912 -9.99511e-05 -0.0657764
0.0013 0.0418912 0.0418912 -9.99511e-05 -0.0657764
0.0013 0.0452784 0.0452319 -5.80611e-05 -0.0710509
0.0013 0.0452784 0.0452319 -5.80611e-05 -0.0710509
0.0013 0.0454726 0.0454569 -9.14873e-05 -0.0713861
0.0013 0.0454726 0.0454569 -9.14873e-05 -0.0713861
0.0013 0.0454293 0.0454276 -0.000102129 -0.0713296
0.0013 0.0454293 0.0454276 -0.000102129 -0.0713296
0.0013 0.0454163 0.0454188 -9.99927e-05 -0.0713136
0.0013 0.0454163 0.0454188 -9.99927e-05 -0.0713136
0.0013 0.0454163 0.0454176 -0.000100803 -0.0713118
0.0013 0.0454163 0.0454176 -0.000100803 -0.0713118
0.0013 0.0454154 0.0454163 -0.000100317 -0.07131
0.0013 0.0454154 0.0454163 -0.000100317 -0.07131
0.0013 0.0454159 0.0454158 -0.000100322 -0.07131
0.0013 0.0454159 0.0454158 -0.000100322 -0.07131
0.0013 0.045416 0.0454159 -0.000100197 -0.0713101
0.0013 0.045416 0.0454159 -0.000100197 -0.0713101
0.0013 0.045416 0.045416 -0.000100223 -0.0713101
0.0013 0.045416 0.045416 -0.000100223 -0.0713101
0.0014 0.0454189 0.0454189 -0.000100221 -0.0713147
0.0014 0.0454189 0.0454189 -0.000100221 -0.0713147
0.0014 0.0490678 0.0490398 -5.91809e-05 -0.0770199
0.0014 0.0490678 0.0490398 -5.91809e-05 -0.0770199
0.0014 0.0490168 0.0490023 -8.75792e-05 -0.0769515
0.0014 0.0490168 0.0490023 -8.75792e-05 -0.0769515
0.0014 0.0489978 0.0489994 -0.000100207 -0.0769354
0.0014 0.0489978 0.0489994 -0.000100207 -0.0769354
0.0014 0.0490102 0.049008 -9.76827e-05 -0.0769504
0.0014 0.0490102 0.049008 -9.76827e-05 -0.0769504
0.0014 0.0490097 0.049009 -9.75788e-05 -0.0769516
0.0014 0.0490097 0.049009 -9.75788e-05 -0.0769516
0.0014 0.0490107 0.0490102 -9.71455e-05 -0.0769534
0.0014 0.0490107 0.0490102 -9.71455e-05 -0.0769534
0.0014 0.0490102 0.0490105 -9.69742e-05 -0.0769531
0.0014 0.0490102 0.0490105 -9.69742e-05 -0.0769531
0.0014 0.0490104 0.0490106 -9.68944e-05 -0.0769533
0.0014 0.0490104 0.0490106 -9.68944e-05 -0.0769533
0.0014 0.0490105 0.0490106 -9.69016e-05 -0.0769534
0.0014 0.0490105 0.0490106 -9.69016e-05 -0.0769534
0.0015 0.0490115 0.0490116 -9.69007e-05 -0.076955
0.0015 0.0490115 0.0490116 -9.69007e-05 -0.076955
0.0015 0.0526525 0.0527006 -3.69644e-05 -0.0827004
0.0015 0.0526525 0.0527006 -3.69644e-05 -0.0827004
0.0015 0.0526354 0.0526883 -0.000102208 -0.0826851
0.0015 0.0526354 0.0526883 -0.000102208 -0.0826851
0.0015 0.0526576 0.0526545 -9.22519e-05 -0.0826809
0.0015 0.0526576 0.0526545 -9.22519e-05 -0.0826809
0.0015 0.0526677 0.0526542 -9.15733e-05 -0.0826853
0.0015 0.0526677 0.0526542 -9.15733e-05 -0.0826853
0.0015 0.0526618 0.0526615 -9.00357e-05 -0.0826857
0.0015 0.0526618 0.0526615 -9.00357e-05 -0.0826857
0.0015 0.0526617 0.0526621 -9.02795e-05 -0.0826858
0.0015 0.0526617 0.0526621 -9.02795e-05 -0.0826858
0.0015 0.0526619 0.0526616 -9.02258e-05 -0.0826857
0.0015 0.0526619 0.0526616 -9.02258e-05 -0.0826857
0.0015 0.0526614 0.0526617 -9.0283e-05 -0.0826854
0.0015 0.0526614 0.0526617 -9.0283e-05 -0.0826854
0.0015 0.0526615 0.0526616 -9.02686e-05 -0.0826854
0.0015 0.0526615 0.0526616 -9.02686e-05 -0.0826854
0.0016 0.0526613 0.0526612 -9.02701e-05 -0.0826849
0.0016 0.0526613 0.0526612 -9.02701e-05 -0.0826849
0.0016 0.0563202 0.0563956 -1.69604e-05 -0.0884495
0.0016 0.0563202 0.0563956 -1.69604e-05 -0.0884495
0.0016 0.0563628 0.0563723 -7.96423e-05 -0.0885044
0.0016 0.0563628 0.0563723 -7.96423e-05 -0.0885044
0.0016 0.0563655 0.056355 -8.20891e-05 -0.0884903
0.0016 0.0563655 0.056355 -8.20891e-05 -0.0884903
0.0016 0.0563614 0.0563582 -8.10228e-05 -0.0884914
0.0016 0.0563614 0.0563582 -8.10228e-05 -0.0884914
0.0016 0.0563593 0.0563598 -8.11277e-05 -0.0884913
0.0016 0.0563593 0.0563598 -8.11277e-05 -0.0884913
0.0016 0.0563592 0.0563598 -8.0752e-05 -0.0884911
0.0016 0.0563592 0.0563598 -8.0752e-05 -0.0884911
0.0016 0.0563595 0.0563596 -8.07202e-05 -0.0884912
0.0016 0.0563595 0.0563596 -8.07202e-05 -0.0884912
0.0016 0.0563597 0.0563596 -8.06657e-05 -0.0884913
0.0016 0.0563597 0.0563596 -8.06657e-05 -0.0884913
0.0017 0.0563603 0.0563599 -8.06809e-05 -0.088492
0.0017 0.0563603 0.0563599 -8.06809e-05 -0.088492
0.0017 0.0603694 0.0601667 1.66815e-06 -0.0945764
0.0017 0.0603694 0.0601667 1.66815e-06 -0.0945764
0.0017 0.0600658 0.0600721 -8.35029e-05 -0.094308
0.0017 0.0600658 0.0600721 -8.35029e-05 -0.094308
0.0017 0.0601066 0.060082 -6.96486e-05 -0.0943555
0.0017 0.0601066 0.060082 -6.96486e-05 -0.0943555
0.0017 0.0600921 0.0600905 -6.98455e-05 -0.0943501
0.0017 0.0600921 0.0600905 -6.98455e-05 -0.0943501
0.0017 0.0600934 0.0600928 -6.85826e-05 -0.094353
0.0017 0.0600934 0.0600928 -6.85826e-05 -0.094353
0.0017 0.0600928 0.0600943 -6.83643e-05 -0.0943536
0.0017 0.0600928 0.0600943 -6.83643e-05 -0.0943536
0.0017 0.0600935 0.0600938 -6.83849e-05 -0.0943537
0.0017 0.0600935 0.0600938 -6.83849e-05 -0.0943537
0.0017 0.0600937 0.0600937 -6.83212e-05 -0.0943538
0.0017 0.0600937 0.0600937 -6.83212e-05 -0.0943538
0.0018 0.0600894 0.0600894 -6.83635e-05 -0.094347
0.0018 0.0600894 0.0600894 -6.83635e-05 -0.094347
0.0018 0.0642407 0.0636933 3.42292e-05 -0.10041
0.0018 0.0642407 0.0636933 3.42292e-05 -0.10041
0.0018 0.0638598 0.0638749 -5.7716e-05 -0.100286
0.0018 0.0638598 0.0638749 -5.7716e-05 -0.100286
0.0018 0.0638822 0.0638418 -5.7154e-05 -0.10027
0.0018 0.0638822 0.0638418 -5.7154e-05 -0.10027
0.0018 0.0638555 0.0638602 -5.36857e-05 -0.100263
0.0018 0.0638555 0.0638602 -5.36857e-05 -0.100263
0.0018 0.0638556 0.0638572 -5.38278e-05 -0.100262
0.0018 0.0638556 0.0638572 -5.38278e-05 -0.100262
0.0018 0.0638555 0.0638569 -5.37791e-05 -0.100261
0.0018 0.0638555 0.0638569 -5.37791e-05 -0.100261
0.0018 0.063856 0.0638565 -5.36662e-05 -0.100261
0.0018 0.063856 0.0638565 -5.36662e-05 -0.100261
0.0018 0.0638564 0.0638563 -5.36363e-05 -0.100261
0.0018 0.0638564 0.0638563 -5.36363e-05 -0.100261
0.0019 0.0638566 0.0638565 -5.36319e-05 -0.100261
0.0019 0.0638566 0.0638565 -5.36319e-05 -0.100261
0.0019 0.0679069 0.0676371 2.48312e-05 -0.106374
0.0019 0.0679069 0.0676371 2.48312e-05 -0.106374
0.0019 0.0678479 0.0676621 -3.05841e-05 -0.106378
0.0019 0.0678479 0.0676621 -3.05841e-05 -0.106378
0.0019 0.0676482 0.0676574 -4.55252e-05 -0.106219
0.0019 0.0676482 0.0676574 -4.55252e-05 -0.106219
0.0019 0.0676377 0.0676443 -4.24633e-05 -0.106204
0.0019 0.0676377 0.0676443 -4.24633e-05 -0.106204
0.0019 0.0676372 0.0676407 -3.88177e-05 -0.1062
0.0019 0.0676372 0.0676407 -3.88177e-05 -0.1062
0.0019 0.0676383 0.0676402 -3.70186e-05 -0.1062
0.0019 0.0676383 0.0676402 -3.70186e-05 -0.1062
0.0019 0.0676393 0.0676392 -3.70138e-05 -0.1062
0.0019 0.0676393 0.0676392 -3.70138e-05 -0.1062
0.0019 0.0676391 0.0676392 -3.68011e-05 -0.1062
0.0019 0.0676391 0.0676392 -3.68011e-05 -0.1062
0.0019 0.0676391 0.0676394 -3.67641e-05 -0.1062
0.0019 0.0676391 0.0676394 -3.67641e-05 -0.1062
0.002 0.0676415 0.0676419 -3.67598e-05 -0.106204
0.002 0.0676415 0.0676419 -3.67598e-05 -0.106204
0.002 0.0715358 0.0716541 5.96545e-05 -0.1124
0.002 0.0715358 0.0716541 5.96545e-05 -0.1124
0.002 0.071465 0.0714975 -1.83404e-05 -0.11223
0.002 0.071465 0.0714975 -1.83404e-05 -0.11223
0.002 0.0714398 0.071467 -2.30679e-05 -0.112188
0.002 0.0714398 0.071467 -2.30679e-05 -0.112188
0.002 0.0714397 0.0714406 -2.03849e-05 -0.112168
0.002 0.0714397 0.0714406 -2.03849e-05 -0.112168
0.002 0.0714373 0.0714412 -1.79816e-05 -0.112167
0.002 0.0714373 0.0714412 -1.79816e-05 -0.112167
0.002 0.0714373 0.071439 -1.83647e-05 -0.112165
0.002 0.0714373 0.071439 -1.83647e-05 -0.112165
0.002 0.0714385 0.0714387 -1.81549e-05 -0.112166
0.002 0.0714385 0.0714387 -1.81549e-05 -0.112166
0.002 0.0714385 0.0714385 -1.82567e-05 -0.112166
0.002 0.0714385 0.0714385 -1.82567e-05 -0.112166
0.0021 0.0714369 0.071437 -1.82765e-05 -0.112163
0.0021 0.0714369 0.071437 -1.82765e-05 -0.112163
0.0021 0.075152 0.0756797 7.21566e-05 -0.118392
0.0021 0.075152 0.0756797 7.21566e-05 -0.118392
0.0021 0.0752444 0.0753249 1.12667e-05 -0.118209
0.0021 0.0752444 0.0753249 1.12667e-05 -0.118209
0.0021 0.0752617 0.0752568 5.81339e-06 -0.118164
0.0021 0.0752617 0.0752568 5.81339e-06 -0.118164
0.0021 0.0752576 0.0752469 2.73243e-06 -0.118153
0.0021 0.0752576 0.0752469 2.73243e-06 -0.118153
0.0021 0.0752467 0.0752465 2.87061e-06 -0.118145
0.0021 0.0752467 0.0752465 2.87061e-06 -0.118145
0.0021 0.0752457 0.075245 1.92731e-06 -0.118142
0.0021 0.0752457 0.075245 1.92731e-06 -0.118142
0.0021 0.0752456 0.075245 1.97871e-06 -0.118142
0.0021 0.0752456 0.075245 1.97871e-06 -0.118142
0.0021 0.0752457 0.0752452 1.90323e-06 -0.118142
0.0021 0.0752457 0.0752452 1.90323e-06 -0.118142
0.0022 0.0752497 0.0752493 1.86196e-06 -0.118149
0.0022 0.0752497 0.0752493 1.86196e-06 -0.118149
0.0022 0.0790241 0.0795394 7.98073e-05 -0.124474
0.0022 0.0790241 0.0795394 7.98073e-05 -0.124474
0.0022 0.0790235 0.0790089 4.72005e-06 -0.124066
0.0022 0.0790235 0.0790089 4.72005e-06 -0.124066
0.0022 0.079046 0.0790457 2.11084e-05 -0.124111
0.0022 0.079046 0.0790457 2.11084e-05 -0.124111
0.0022 0.0790584 0.0790582 2.26028e-05 -0.124129
0.0022 0.0790584 0.0790582 2.26028e-05 -0.124129
0.0022 0.0790545 0.079056 2.37319e-05 -0.124124
0.0022 0.0790545 0.079056 2.37319e-05 -0.124124
0.0022 0.079055 0.0790547 2.34355e-05 -0.124123
0.0022 0.079055 0.0790547 2.34355e-05 -0.124123
0.0022 0.0790549 0.0790552 2.32953e-05 -0.124124
0.0022 0.0790549 0.0790552 2.32953e-05 -0.124124
0.0022 0.0790549 0.0790552 2.32568e-05 -0.124124
0.0022 0.0790549 0.0790552 2.32568e-05 -0.124124
0.0023 0.0790586 0.0790589 2.3263e-05 -0.124129
0.0023 0.0790586 0.0790589 2.3263e-05 -0.124129
0.0023 0.0832353 0.0833791 1.29428e-05 -0.130814
0.0023 0.0832353 0.0833791 1.29428e-05 -0.130814
0.0023 0.0828312 0.0828648 2.6806e-05 -0.130073
0.0023 0.0828312 0.0828648 2.6806e-05 -0.130073
0.0023 0.0828552 0.0828608 4.2205e-05 -0.13009
0.0023 0.0828552 0.0828608 4.2205e-05 -0.13009
0.0023 0.0828581 0.0828578 4.52223e-05 -0.130095
0.0023 0.0828581 0.0828578 4.52223e-05 -0.130095
0.0023 0.0828605 0.0828602 4.52911e-05 -0.130098
0.0023 0.0828605 0.0828602 4.52911e-05 -0.130098
0.0023 0.0828612 0.0828611 4.56066e-05 -0.130099
0.0023 0.0828612 0.0828611 4.56066e-05 -0.130099
0.0023 0.0828613 0.0828612 4.56643e-05 -0.1301
0.0023 0.0828613 0.0828612 4.56643e-05 -0.1301
0.0023 0.0828612 0.0828611 4.57468e-05 -0.130099
0.0023 0.0828612 0.0828611 4.57468e-05 -0.130099
0.0024 0.0828646 0.0828645 4.581e-05 -0.130105
0.0024 0.0828646 0.0828645 4.581e-05 -0.130105
0.0024 0.0869467 0.0871277 3.4335e-05 -0.136668
0.0024 0.0869467 0.0871277 3.4335e-05 -0.136668
0.0024 0.0865021 0.0865671 7.97232e-05 -0.135867
0.0024 0.0865021 0.0865671 7.97232e-05 -0.135867
0.0024 0.0866451 0.0866552 7.38864e-05 -0.136047
0.0024 0.0866451 0.0866552 7.38864e-05 -0.136047
0.0024 0.0866591 0.0866587 7.02817e-05 -0.136063
0.0024 0.0866591 0.0866587 7.02817e-05 -0.136063
0.0024 0.0866611 0.0866594 6.89665e-05 -0.136064
0.0024 0.0866611 0.0866594 6.89665e-05 -0.136064
0.0024 0.0866605 0.0866603 6.9213e-05 -0.136064
0.0024 0.0866605 0.0866603 6.9213e-05 -0.136064
0.0024 0.0866615 0.086661 6.90584e-05 -0.136066
0.0024 0.0866615 0.086661 6.90584e-05 -0.136066
0.0024 0.0866616 0.0866616 6.90156e-05 -0.136066
0.0024 0.0866616 0.0866616 6.90156e-05 -0.136066
0.0025 0.0866643 0.0866643 6.89741e-05 -0.13607
0.0025 0.0866643 0.0866643 6.89741e-05 -0.13607
0.0025 0.0908655 0.0909252 7.1325e-05 -0.142727
0.0025 0.0908655 0.0909252 7.1325e-05 -0.142727
0.0025 0.0905094 0.0904854 0.000102428 -0.142087
0.0025 0.0905094 0.0904854 0.000102428 -0.142087
0.0025 0.0904606 0.0904499 9.24051e-05 -0.142022
0.0025 0.0904606 0.0904499 9.24051e-05 -0.142022
0.0025 0.0904575 0.090461 9.39001e-05 -0.142029
0.0025 0.0904575 0.090461 9.39001e-05 -0.142029
0.0025 0.0904539 0.0904536 9.20034e-05 -0.14202
0.0025 0.0904539 0.0904536 9.20034e-05 -0.14202
0.0025 0.090454 0.0904533 9.23479e-05 -0.14202
0.0025 0.090454 0.0904533 9.23479e-05 -0.14202
0.0025 0.0904538 0.0904538 9.23801e-05 -0.14202
0.0025 0.0904538 0.0904538 9.23801e-05 -0.14202
0.0025 0.0904538 0.0904538 9.2357e-05 -0.14202
0.0025 0.0904538 0.0904538 9.2357e-05 -0.14202
0.0026 0.0904559 0.090456 9.2361e-05 -0.142024
0.0026 0.0904559 0.090456 9.2361e-05 -0.142024
0.0026 0.094648 0.0947739 0.000102183 -0.1487
0.0026 0.094648 0.0947739 0.000102183 -0.1487
0.0026 0.0942972 0.0943032 0.000107758 -0.148059
0.0026 0.0942972 0.0943032 0.000107758 -0.148059
0.0026 0.094252 0.09426 0.000112773 -0.14799
0.0026 0.094252 0.09426 0.000112773 -0.14799
0.0026 0.0942408 0.0942443 0.000112881 -0.147969
0.0026 0.0942408 0.0942443 0.000112881 -0.147969
0.0026 0.0942361 0.0942349 0.000115381 -0.147958
0.0026 0.0942361 0.0942349 0.000115381 -0.147958
0.0026 0.0942359 0.0942349 0.000115621 -0.147958
0.0026 0.0942359 0.0942349 0.000115621 -0.147958
0.0026 0.0942352 0.094235 0.00011572 -0.147957
0.0026 0.0942352 0.094235 0.00011572 -0.147957
0.0026 0.0942351 0.094235 0.000115742 -0.147957
0.0026 0.0942351 0.094235 0.000115742 -0.147957
0.0027 0.0942331 0.0942331 0.000115747 -0.147954
0.0027 0.0942331 0.0942331 0.000115747 -0.147954
0.0027 0.0987095 0.0987824 0.000122833 -0.155045
0.0027 0.0987095 0.0987824 0.000122833 -0.155045
0.0027 0.0980066 0.0980203 0.000131139 -0.153884
0.0027 0.0980066 0.0980203 0.000131139 -0.153884
0.0027 0.0979996 0.0980238 0.000138522 -0.153886
0.0027 0.0979996 0.0980238 0.000138522 -0.153886
0.0027 0.0979968 0.0980029 0.000138327 -0.153868
0.0027 0.0979968 0.0980029 0.000138327 -0.153868
0.0027 0.0980012 0.0980025 0.000139276 -0.153871
0.0027 0.0980012 0.0980025 0.000139276 -0.153871