# Time Dx Dy Dz magD
2.5e-05 0 1.42682e-11 1.57301e-13 1.42691e-11
2.5e-05 0 1.42682e-11 1.57301e-13 1.42691e-11
5e-05 0 2.87364e-11 1.53809e-12 2.87775e-11
5e-05 0 2.87364e-11 1.53809e-12 2.87775e-11
7.5e-05 0 6.03902e-11 3.82945e-12 6.05115e-11
7.5e-05 0 6.03902e-11 3.82945e-12 6.05115e-11
0.0001 0 1.10605e-10 5.34115e-12 1.10734e-10
0.0001 0 1.10605e-10 5.34115e-12 1.10734e-10
0.000125 0 1.94707e-10 3.58161e-12 1.9474e-10
0.000125 0 1.94707e-10 3.58161e-12 1.9474e-10
0.00015 0 3.12126e-10 -3.45686e-12 3.12146e-10
0.00015 0 3.12126e-10 -3.45686e-12 3.12146e-10
0.000175 0 4.36863e-10 -1.67745e-11 4.37185e-10
0.000175 0 4.36863e-10 -1.67745e-11 4.37185e-10
0.0002 0 6.11759e-10 -3.63332e-11 6.12837e-10
0.0002 0 6.11759e-10 -3.63332e-11 6.12837e-10
0.000225 0 8.11709e-10 -6.14223e-11 8.14029e-10
0.000225 0 8.11709e-10 -6.14223e-11 8.14029e-10
0.00025 0 1.00772e-09 -9.10878e-11 1.01183e-09
0.00025 0 1.00772e-09 -9.10878e-11 1.01183e-09
0.000275 0 1.26841e-09 -1.24742e-10 1.27453e-09
0.000275 0 1.26841e-09 -1.24742e-10 1.27453e-09
0.0003 0 1.56885e-09 -1.62425e-10 1.57723e-09
0.0003 0 1.56885e-09 -1.62425e-10 1.57723e-09
0.000325 0 1.88353e-09 -2.04949e-10 1.89465e-09
0.000325 0 1.88353e-09 -2.04949e-10 1.89465e-09
0.00035 0 2.25724e-09 -2.53765e-10 2.27146e-09
0.00035 0 2.25724e-09 -2.53765e-10 2.27146e-09
0.000375 0 2.66678e-09 -3.10734e-10 2.68482e-09
0.000375 0 2.66678e-09 -3.10734e-10 2.68482e-09
0.0004 0 3.11733e-09 -3.78004e-10 3.14016e-09
0.0004 0 3.11733e-09 -3.78004e-10 3.14016e-09
0.000425 0 3.63761e-09 -4.57829e-10 3.6663e-09
0.000425 0 3.63761e-09 -4.57829e-10 3.6663e-09
0.00045 0 4.19932e-09 -5.52539e-10 4.23552e-09
0.00045 0 4.19932e-09 -5.52539e-10 4.23552e-09
0.000475 0 4.82759e-09 -6.64531e-10 4.87311e-09
0.000475 0 4.82759e-09 -6.64531e-10 4.87311e-09
0.0005 0 5.53117e-09 -7.96356e-10 5.5882e-09
0.0005 0 5.53117e-09 -7.96356e-10 5.5882e-09
0.000525 0 6.28564e-09 -9.50966e-10 6.35717e-09
0.000525 0 6.28564e-09 -9.50966e-10 6.35717e-09
0.00055 0 7.11063e-09 -1.13191e-09 7.20016e-09
0.00055 0 7.11063e-09 -1.13191e-09 7.20016e-09
0.000575 0 8.04229e-09 -1.3436e-09 8.15376e-09
0.000575 0 8.04229e-09 -1.3436e-09 8.15376e-09
0.0006 0 9.036e-09 -1.59153e-09 9.17509e-09
0.0006 0 9.036e-09 -1.59153e-09 9.17509e-09
0.000625 0 1.01344e-08 -1.88245e-09 1.03077e-08
0.000625 0 1.01344e-08 -1.88245e-09 1.03077e-08
0.00065 0 1.134e-08 -2.22442e-09 1.15561e-08
0.00065 0 1.134e-08 -2.22442e-09 1.15561e-08
0.000675 0 1.26407e-08 -2.62686e-09 1.29108e-08
0.000675 0 1.26407e-08 -2.62686e-09 1.29108e-08
0.0007 0 1.4058e-08 -3.1007e-09 1.43959e-08
0.0007 0 1.4058e-08 -3.1007e-09 1.43959e-08
0.000725 0 1.56173e-08 -3.65821e-09 1.604e-08
0.000725 0 1.56173e-08 -3.65821e-09 1.604e-08
0.00075 0 1.72945e-08 -4.31383e-09 1.78244e-08
0.00075 0 1.72945e-08 -4.31383e-09 1.78244e-08
0.000775 0 1.91179e-08 -5.08446e-09 1.97825e-08
0.000775 0 1.91179e-08 -5.08446e-09 1.97825e-08
0.0008 0 2.11272e-08 -5.99004e-09 2.19599e-08
0.0008 0 2.11272e-08 -5.99004e-09 2.19599e-08
0.000825 0 2.32696e-08 -7.05366e-09 2.43152e-08
0.000825 0 2.32696e-08 -7.05366e-09 2.43152e-08
0.00085 0 2.55751e-08 -8.30192e-09 2.68888e-08
0.00085 0 2.55751e-08 -8.30192e-09 2.68888e-08
0.000875 0 2.81064e-08 -9.76581e-09 2.97546e-08
0.000875 0 2.81064e-08 -9.76581e-09 2.97546e-08
0.0009 0 3.08039e-08 -1.14822e-08 3.28743e-08
0.0009 0 3.08039e-08 -1.14822e-08 3.28743e-08
0.000925 0 3.37275e-08 -1.34951e-08 3.63271e-08
0.000925 0 3.37275e-08 -1.34951e-08 3.63271e-08
0.00095 0 3.69195e-08 -1.58572e-08 4.01809e-08
0.00095 0 3.69195e-08 -1.58572e-08 4.01809e-08
0.000975 0 4.03252e-08 -1.86318e-08 4.44215e-08
0.000975 0 4.03252e-08 -1.86318e-08 4.44215e-08
0.001 0 4.40155e-08 -2.18957e-08 4.91608e-08
0.001 0 4.40155e-08 -2.18957e-08 4.91608e-08
0.001025 0 4.80047e-08 -2.57415e-08 5.44709e-08
0.001025 0 4.80047e-08 -2.57415e-08 5.44709e-08
0.00105 0 5.22877e-08 -3.02833e-08 6.04242e-08
0.00105 0 5.22877e-08 -3.02833e-08 6.04242e-08
0.001075 0 5.6895e-08 -3.56615e-08 6.71474e-08
0.001075 0 5.6895e-08 -3.56615e-08 6.71474e-08
0.0011 0 6.19108e-08 -4.20484e-08 7.48399e-08
0.0011 0 6.19108e-08 -4.20484e-08 7.48399e-08
0.001125 0 6.7266e-08 -4.96546e-08 8.3608e-08
0.001125 0 6.7266e-08 -4.96546e-08 8.3608e-08
0.00115 0 7.30577e-08 -5.87366e-08 9.37412e-08
0.00115 0 7.30577e-08 -5.87366e-08 9.37412e-08
0.001175 0 7.93228e-08 -6.96045e-08 1.05531e-07
0.001175 0 7.93228e-08 -6.96045e-08 1.05531e-07
0.0012 0 8.60286e-08 -8.2632e-08 1.19285e-07
0.0012 0 8.60286e-08 -8.2632e-08 1.19285e-07
0.001225 0 9.32691e-08 -9.82646e-08 1.35481e-07
0.001225 0 9.32691e-08 -9.82646e-08 1.35481e-07
0.00125 0 1.01151e-07 -1.17028e-07 1.54684e-07
0.00125 0 1.01151e-07 -1.17028e-07 1.54684e-07
0.001275 0 1.09597e-07 -1.39537e-07 1.77432e-07
0.001275 0 1.09597e-07 -1.39537e-07 1.77432e-07
0.0013 0 1.18717e-07 -1.66499e-07 2.04489e-07
0.0013 0 1.18717e-07 -1.66499e-07 2.04489e-07
0.001325 0 1.28577e-07 -1.98716e-07 2.36686e-07
0.001325 0 1.28577e-07 -1.98716e-07 2.36686e-07
0.00135 0 1.39159e-07 -2.37091e-07 2.74914e-07
0.00135 0 1.39159e-07 -2.37091e-07 2.74914e-07
0.001375 0 1.50586e-07 -2.82622e-07 3.20236e-07
0.001375 0 1.50586e-07 -2.82622e-07 3.20236e-07
0.0014 0 1.62958e-07 -3.36396e-07 3.73788e-07
0.0014 0 1.62958e-07 -3.36396e-07 3.73788e-07
0.001425 0 1.76188e-07 -3.99581e-07 4.367e-07
0.001425 0 1.76188e-07 -3.99581e-07 4.367e-07
0.00145 0 1.90353e-07 -4.7341e-07 5.10246e-07
0.00145 0 1.90353e-07 -4.7341e-07 5.10246e-07
0.001475 0 2.05622e-07 -5.59165e-07 5.95774e-07
0.001475 0 2.05622e-07 -5.59165e-07 5.95774e-07
0.0015 0 2.21898e-07 -6.58156e-07 6.94556e-07
0.0015 0 2.21898e-07 -6.58156e-07 6.94556e-07
0.001525 0 2.39209e-07 -7.71696e-07 8.07921e-07
0.001525 0 2.39209e-07 -7.71696e-07 8.07921e-07
0.00155 0 2.57695e-07 -9.01078e-07 9.37202e-07
0.00155 0 2.57695e-07 -9.01078e-07 9.37202e-07
0.001575 0 2.77244e-07 -1.04754e-06 1.08361e-06
0.001575 0 2.77244e-07 -1.04754e-06 1.08361e-06
0.0016 0 2.97868e-07 -1.21226e-06 1.24832e-06
0.0016 0 2.97868e-07 -1.21226e-06 1.24832e-06
0.001625 0 3.19711e-07 -1.39631e-06 1.43244e-06
0.001625 0 3.19711e-07 -1.39631e-06 1.43244e-06
0.00165 0 3.42646e-07 -1.60062e-06 1.63689e-06
0.00165 0 3.42646e-07 -1.60062e-06 1.63689e-06
0.001675 0 3.66703e-07 -1.82602e-06 1.86248e-06
0.001675 0 3.66703e-07 -1.82602e-06 1.86248e-06
0.0017 0 3.9191e-07 -2.07316e-06 2.10988e-06
0.0017 0 3.9191e-07 -2.07316e-06 2.10988e-06
0.001725 0 4.18153e-07 -2.34252e-06 2.37955e-06
0.001725 0 4.18153e-07 -2.34252e-06 2.37955e-06
0.00175 0 4.45446e-07 -2.63444e-06 2.67183e-06
0.00175 0 4.45446e-07 -2.63444e-06 2.67183e-06
0.001775 0 4.73924e-07 -2.94907e-06 2.98691e-06
0.001775 0 4.73924e-07 -2.94907e-06 2.98691e-06
0.0018 0 5.03413e-07 -3.28642e-06 3.32475e-06
0.0018 0 5.03413e-07 -3.28642e-06 3.32475e-06
0.001825 0 5.3393e-07 -3.64633e-06 3.68521e-06
0.001825 0 5.3393e-07 -3.64633e-06 3.68521e-06
0.00185 0 5.65603e-07 -4.02852e-06 4.06803e-06
0.00185 0 5.65603e-07 -4.02852e-06 4.06803e-06
0.001875 0 5.98289e-07 -4.43259e-06 4.47279e-06
0.001875 0 5.98289e-07 -4.43259e-06 4.47279e-06
0.0019 0 6.32164e-07 -4.85806e-06 4.89901e-06
0.0019 0 6.32164e-07 -4.85806e-06 4.89901e-06
0.001925 0 6.67224e-07 -5.30433e-06 5.34613e-06
0.001925 0 6.67224e-07 -5.30433e-06 5.34613e-06
0.00195 0 7.03409e-07 -5.77079e-06 5.8135e-06
0.00195 0 7.03409e-07 -5.77079e-06 5.8135e-06
0.001975 0 7.40876e-07 -6.25675e-06 6.30046e-06
0.001975 0 7.40876e-07 -6.25675e-06 6.30046e-06
0.002 0 7.79652e-07 -6.76152e-06 6.80632e-06
0.002 0 7.79652e-07 -6.76152e-06 6.80632e-06
0.002025 0 8.19712e-07 -7.28441e-06 7.33038e-06
0.002025 0 8.19712e-07 -7.28441e-06 7.33038e-06
0.00205 0 8.61167e-07 -7.8247e-06 7.87195e-06
0.00205 0 8.61167e-07 -7.8247e-06 7.87195e-06
0.002075 0 9.04161e-07 -8.38172e-06 8.43035e-06
0.002075 0 9.04161e-07 -8.38172e-06 8.43035e-06
0.0021 0 9.48592e-07 -8.9548e-06 9.00491e-06
0.0021 0 9.48592e-07 -8.9548e-06 9.00491e-06
0.002125 0 9.94628e-07 -9.5433e-06 9.595e-06
0.002125 0 9.94628e-07 -9.5433e-06 9.595e-06
0.00215 0 1.04252e-06 -1.01466e-05 1.02e-05
0.00215 0 1.04252e-06 -1.01466e-05 1.02e-05
0.002175 0 1.09212e-06 -1.07641e-05 1.08194e-05
0.002175 0 1.09212e-06 -1.07641e-05 1.08194e-05
0.0022 0 1.14351e-06 -1.13953e-05 1.14526e-05
0.0022 0 1.14351e-06 -1.13953e-05 1.14526e-05
0.002225 0 1.19689e-06 -1.20396e-05 1.2099e-05
0.002225 0 1.19689e-06 -1.20396e-05 1.2099e-05
0.00225 0 1.25223e-06 -1.26966e-05 1.27582e-05
0.00225 0 1.25223e-06 -1.26966e-05 1.27582e-05
0.002275 0 1.30964e-06 -1.33657e-05 1.34297e-05
0.002275 0 1.30964e-06 -1.33657e-05 1.34297e-05
0.0023 0 1.36932e-06 -1.40464e-05 1.4113e-05
0.0023 0 1.36932e-06 -1.40464e-05 1.4113e-05
0.002325 0 1.43117e-06 -1.47384e-05 1.48077e-05
0.002325 0 1.43117e-06 -1.47384e-05 1.48077e-05
0.00235 0 1.49539e-06 -1.54411e-05 1.55133e-05
0.00235 0 1.49539e-06 -1.54411e-05 1.55133e-05
0.002375 0 1.56217e-06 -1.61541e-05 1.62295e-05
0.002375 0 1.56217e-06 -1.61541e-05 1.62295e-05
0.0024 0 1.63147e-06 -1.68771e-05 1.69558e-05
0.0024 0 1.63147e-06 -1.68771e-05 1.69558e-05
0.002425 0 1.70326e-06 -1.76096e-05 1.76917e-05
0.002425 0 1.70326e-06 -1.76096e-05 1.76917e-05
0.00245 0 1.7779e-06 -1.83511e-05 1.8437e-05
0.00245 0 1.7779e-06 -1.83511e-05 1.8437e-05
0.002475 0 1.85533e-06 -1.91013e-05 1.91912e-05
0.002475 0 1.85533e-06 -1.91013e-05 1.91912e-05
0.0025 0 1.93566e-06 -1.98599e-05 1.9954e-05
0.0025 0 1.93566e-06 -1.98599e-05 1.9954e-05
0.002525 0 2.01903e-06 -2.06263e-05 2.07249e-05
0.002525 0 2.01903e-06 -2.06263e-05 2.07249e-05
0.00255 0 2.10548e-06 -2.14003e-05 2.15036e-05
0.00255 0 2.10548e-06 -2.14003e-05 2.15036e-05
0.002575 0 2.19515e-06 -2.21814e-05 2.22898e-05
0.002575 0 2.19515e-06 -2.21814e-05 2.22898e-05
0.0026 0 2.28831e-06 -2.29694e-05 2.30831e-05
0.0026 0 2.28831e-06 -2.29694e-05 2.30831e-05
0.002625 0 2.38483e-06 -2.37637e-05 2.38831e-05
0.002625 0 2.38483e-06 -2.37637e-05 2.38831e-05
0.00265 0 2.48486e-06 -2.45642e-05 2.46895e-05
0.00265 0 2.48486e-06 -2.45642e-05 2.46895e-05
0.002675 0 2.5887e-06 -2.53704e-05 2.55021e-05
0.002675 0 2.5887e-06 -2.53704e-05 2.55021e-05
0.0027 0 2.69627e-06 -2.6182e-05 2.63204e-05
0.0027 0 2.69627e-06 -2.6182e-05 2.63204e-05
0.002725 0 2.80784e-06 -2.69986e-05 2.71442e-05
0.002725 0 2.80784e-06 -2.69986e-05 2.71442e-05
0.00275 0 2.92361e-06 -2.782e-05 2.79732e-05
0.00275 0 2.92361e-06 -2.782e-05 2.79732e-05
0.002775 0 3.04344e-06 -2.86459e-05 2.88071e-05
0.002775 0 3.04344e-06 -2.86459e-05 2.88071e-05
0.0028 0 3.16757e-06 -2.94758e-05 2.96455e-05
0.0028 0 3.16757e-06 -2.94758e-05 2.96455e-05
0.002825 0 3.29633e-06 -3.03096e-05 3.04884e-05
0.002825 0 3.29633e-06 -3.03096e-05 3.04884e-05
0.00285 0 3.42967e-06 -3.1147e-05 3.13352e-05
0.00285 0 3.42967e-06 -3.1147e-05 3.13352e-05
0.002875 0 3.56774e-06 -3.19875e-05 3.21859e-05
0.002875 0 3.56774e-06 -3.19875e-05 3.21859e-05
0.0029 0 3.71082e-06 -3.28311e-05 3.30401e-05
0.0029 0 3.71082e-06 -3.28311e-05 3.30401e-05
0.002925 0 3.85892e-06 -3.36773e-05 3.38977e-05
0.002925 0 3.85892e-06 -3.36773e-05 3.38977e-05
0.00295 0 4.01218e-06 -3.4526e-05 3.47584e-05
0.00295 0 4.01218e-06 -3.4526e-05 3.47584e-05
0.002975 0 4.17099e-06 -3.53769e-05 3.56219e-05
0.002975 0 4.17099e-06 -3.53769e-05 3.56219e-05
0.003 0 4.33528e-06 -3.62297e-05 3.64881e-05
0.003 0 4.33528e-06 -3.62297e-05 3.64881e-05
0.003025 0 4.50522e-06 -3.70841e-05 3.73568e-05
0.003025 0 4.50522e-06 -3.70841e-05 3.73568e-05
0.00305 0 4.6811e-06 -3.794e-05 3.82277e-05
0.00305 0 4.6811e-06 -3.794e-05 3.82277e-05
0.003075 0 4.86298e-06 -3.87971e-05 3.91007e-05
0.003075 0 4.86298e-06 -3.87971e-05 3.91007e-05
0.0031 0 5.05096e-06 -3.96551e-05 3.99755e-05
0.0031 0 5.05096e-06 -3.96551e-05 3.99755e-05
0.003125 0 5.24539e-06 -4.05139e-05 4.08521e-05
0.003125 0 5.24539e-06 -4.05139e-05 4.08521e-05
0.00315 0 5.44625e-06 -4.13732e-05 4.17301e-05
0.00315 0 5.44625e-06 -4.13732e-05 4.17301e-05
0.003175 0 5.65376e-06 -4.22327e-05 4.26095e-05
0.003175 0 5.65376e-06 -4.22327e-05 4.26095e-05
0.0032 0 5.86795e-06 -4.30923e-05 4.349e-05
0.0032 0 5.86795e-06 -4.30923e-05 4.349e-05
0.003225 0 6.08921e-06 -4.39517e-05 4.43715e-05
0.003225 0 6.08921e-06 -4.39517e-05 4.43715e-05
0.00325 0 6.31767e-06 -4.48108e-05 4.52539e-05
0.00325 0 6.31767e-06 -4.48108e-05 4.52539e-05
0.003275 0 6.5532e-06 -4.56692e-05 4.6137e-05
0.003275 0 6.5532e-06 -4.56692e-05 4.6137e-05
0.0033 0 6.79627e-06 -4.65269e-05 4.70207e-05
0.0033 0 6.79627e-06 -4.65269e-05 4.70207e-05
0.003325 0 7.04684e-06 -4.73836e-05 4.79047e-05
0.003325 0 7.04684e-06 -4.73836e-05 4.79047e-05
0.00335 0 7.3048e-06 -4.8239e-05 4.8789e-05
0.00335 0 7.3048e-06 -4.8239e-05 4.8789e-05
0.003375 0 7.5706e-06 -4.90931e-05 4.96734e-05
0.003375 0 7.5706e-06 -4.90931e-05 4.96734e-05
0.0034 0 7.84436e-06 -4.99456e-05 5.05578e-05
0.0034 0 7.84436e-06 -4.99456e-05 5.05578e-05
0.003425 0 8.12583e-06 -5.07963e-05 5.14421e-05
0.003425 0 8.12583e-06 -5.07963e-05 5.14421e-05
0.00345 0 8.41538e-06 -5.1645e-05 5.23261e-05
0.00345 0 8.41538e-06 -5.1645e-05 5.23261e-05
0.003475 0 8.71317e-06 -5.24915e-05 5.32098e-05
0.003475 0 8.71317e-06 -5.24915e-05 5.32098e-05
0.0035 0 9.01895e-06 -5.33358e-05 5.40929e-05
0.0035 0 9.01895e-06 -5.33358e-05 5.40929e-05
0.003525 0 9.33295e-06 -5.41775e-05 5.49755e-05
0.003525 0 9.33295e-06 -5.41775e-05 5.49755e-05
0.00355 0 9.6554e-06 -5.50165e-05 5.58573e-05
0.00355 0 9.6554e-06 -5.50165e-05 5.58573e-05
0.003575 0 9.98602e-06 -5.58527e-05 5.67384e-05
0.003575 0 9.98602e-06 -5.58527e-05 5.67384e-05
0.0036 0 1.03251e-05 -5.66858e-05 5.76185e-05
0.0036 0 1.03251e-05 -5.66858e-05 5.76185e-05
0.003625 0 1.06725e-05 -5.75159e-05 5.84977e-05
0.003625 0 1.06725e-05 -5.75159e-05 5.84977e-05
0.00365 0 1.10281e-05 -5.83426e-05 5.93757e-05
0.00365 0 1.10281e-05 -5.83426e-05 5.93757e-05
0.003675 0 1.13925e-05 -5.91658e-05 6.02527e-05
0.003675 0 1.13925e-05 -5.91658e-05 6.02527e-05
0.0037 0 1.17654e-05 -5.99855e-05 6.11284e-05
0.0037 0 1.17654e-05 -5.99855e-05 6.11284e-05
0.003725 0 1.21466e-05 -6.08014e-05 6.20028e-05
0.003725 0 1.21466e-05 -6.08014e-05 6.20028e-05
0.00375 0 1.25365e-05 -6.16134e-05 6.28759e-05
0.00375 0 1.25365e-05 -6.16134e-05 6.28759e-05
0.003775 0 1.29351e-05 -6.24214e-05 6.37475e-05
0.003775 0 1.29351e-05 -6.24214e-05 6.37475e-05
0.0038 0 1.33421e-05 -6.32253e-05 6.46177e-05
0.0038 0 1.33421e-05 -6.32253e-05 6.46177e-05
0.003825 0 1.37582e-05 -6.40248e-05 6.54864e-05
0.003825 0 1.37582e-05 -6.40248e-05 6.54864e-05
0.00385 0 1.4183e-05 -6.482e-05 6.63535e-05
0.00385 0 1.4183e-05 -6.482e-05 6.63535e-05
0.003875 0 1.46167e-05 -6.56105e-05 6.7219e-05
0.003875 0 1.46167e-05 -6.56105e-05 6.7219e-05
0.0039 0 1.50595e-05 -6.63963e-05 6.80828e-05
0.0039 0 1.50595e-05 -6.63963e-05 6.80828e-05
0.003925 0 1.55118e-05 -6.71772e-05 6.89449e-05
0.003925 0 1.55118e-05 -6.71772e-05 6.89449e-05
0.00395 0 1.59734e-05 -6.7953e-05 6.98051e-05
0.00395 0 1.59734e-05 -6.7953e-05 6.98051e-05
0.003975 0 1.64448e-05 -6.87234e-05 7.06636e-05
0.003975 0 1.64448e-05 -6.87234e-05 7.06636e-05
0.004 0 1.69261e-05 -6.94883e-05 7.15201e-05
0.004 0 1.69261e-05 -6.94883e-05 7.15201e-05
0.004025 0 1.74176e-05 -7.02473e-05 7.23745e-05
0.004025 0 1.74176e-05 -7.02473e-05 7.23745e-05
0.00405 0 1.79198e-05 -7.10002e-05 7.32267e-05
0.00405 0 1.79198e-05 -7.10002e-05 7.32267e-05
0.004075 0 1.8433e-05 -7.17466e-05 7.40767e-05
0.004075 0 1.8433e-05 -7.17466e-05 7.40767e-05
0.0041 0 1.89577e-05 -7.24861e-05 7.49241e-05
0.0041 0 1.89577e-05 -7.24861e-05 7.49241e-05
0.004125 0 1.94942e-05 -7.32182e-05 7.57689e-05
0.004125 0 1.94942e-05 -7.32182e-05 7.57689e-05
0.00415 0 2.00434e-05 -7.39424e-05 7.66108e-05
0.00415 0 2.00434e-05 -7.39424e-05 7.66108e-05
0.004175 0 2.06052e-05 -7.4658e-05 7.74493e-05
0.004175 0 2.06052e-05 -7.4658e-05 7.74493e-05
0.0042 0 2.11808e-05 -7.53644e-05 7.82842e-05
0.0042 0 2.11808e-05 -7.53644e-05 7.82842e-05
0.004225 0 2.17706e-05 -7.60607e-05 7.91151e-05
0.004225 0 2.17706e-05 -7.60607e-05 7.91151e-05
0.00425 0 2.2375e-05 -7.67461e-05 7.99412e-05
0.00425 0 2.2375e-05 -7.67461e-05 7.99412e-05
0.004275 0 2.2995e-05 -7.74193e-05 8.07622e-05
0.004275 0 2.2995e-05 -7.74193e-05 8.07622e-05
0.0043 0 2.36313e-05 -7.80794e-05 8.15771e-05
0.0043 0 2.36313e-05 -7.80794e-05 8.15771e-05
0.004325 0 2.42841e-05 -7.87249e-05 8.23853e-05
0.004325 0 2.42841e-05 -7.87249e-05 8.23853e-05
0.00435 0 2.49546e-05 -7.93544e-05 8.31857e-05
0.00435 0 2.49546e-05 -7.93544e-05 8.31857e-05
0.004375 0 2.56433e-05 -7.99663e-05 8.39773e-05
0.004375 0 2.56433e-05 -7.99663e-05 8.39773e-05
0.0044 0 2.63507e-05 -8.05589e-05 8.47591e-05
0.0044 0 2.63507e-05 -8.05589e-05 8.47591e-05
0.004425 0 2.70777e-05 -8.11303e-05 8.55297e-05
0.004425 0 2.70777e-05 -8.11303e-05 8.55297e-05
0.00445 0 2.78248e-05 -8.16785e-05 8.62879e-05
0.00445 0 2.78248e-05 -8.16785e-05 8.62879e-05
0.004475 0 2.85925e-05 -8.22015e-05 8.70323e-05
0.004475 0 2.85925e-05 -8.22015e-05 8.70323e-05
0.0045 0 2.93814e-05 -8.2697e-05 8.77614e-05
0.0045 0 2.93814e-05 -8.2697e-05 8.77614e-05
0.004525 0 3.01919e-05 -8.31628e-05 8.84737e-05
0.004525 0 3.01919e-05 -8.31628e-05 8.84737e-05
0.00455 0 3.10242e-05 -8.35967e-05 8.91678e-05
0.00455 0 3.10242e-05 -8.35967e-05 8.91678e-05
0.004575 0 3.18789e-05 -8.39964e-05 8.98424e-05
0.004575 0 3.18789e-05 -8.39964e-05 8.98424e-05
0.0046 0 3.27561e-05 -8.43597e-05 9.0496e-05
0.0046 0 3.27561e-05 -8.43597e-05 9.0496e-05
0.004625 0 3.36559e-05 -8.46844e-05 9.11272e-05
0.004625 0 3.36559e-05 -8.46844e-05 9.11272e-05
0.00465 0 3.45785e-05 -8.49685e-05 9.1735e-05
0.00465 0 3.45785e-05 -8.49685e-05 9.1735e-05
0.004675 0 3.55235e-05 -8.521e-05 9.23182e-05
0.004675 0 3.55235e-05 -8.521e-05 9.23182e-05
0.0047 0 3.64909e-05 -8.54071e-05 9.28761e-05
0.0047 0 3.64909e-05 -8.54071e-05 9.28761e-05
0.004725 0 3.74803e-05 -8.55583e-05 9.34077e-05
0.004725 0 3.74803e-05 -8.55583e-05 9.34077e-05
0.00475 0 3.84912e-05 -8.56622e-05 9.39127e-05
0.00475 0 3.84912e-05 -8.56622e-05 9.39127e-05
0.004775 0 3.9523e-05 -8.57176e-05 9.43905e-05
0.004775 0 3.9523e-05 -8.57176e-05 9.43905e-05
0.0048 0 4.05751e-05 -8.57235e-05 9.48412e-05
0.0048 0 4.05751e-05 -8.57235e-05 9.48412e-05
0.004825 0 4.16466e-05 -8.56791e-05 9.52646e-05
0.004825 0 4.16466e-05 -8.56791e-05 9.52646e-05
0.00485 0 4.27364e-05 -8.55841e-05 9.5661e-05
0.00485 0 4.27364e-05 -8.55841e-05 9.5661e-05
0.004875 0 4.38435e-05 -8.5438e-05 9.60307e-05
0.004875 0 4.38435e-05 -8.5438e-05 9.60307e-05
0.0049 0 4.49668e-05 -8.52408e-05 9.63743e-05
0.0049 0 4.49668e-05 -8.52408e-05 9.63743e-05
0.004925 0 4.61046e-05 -8.49926e-05 9.66922e-05
0.004925 0 4.61046e-05 -8.49926e-05 9.66922e-05
0.00495 0 4.72559e-05 -8.46937e-05 9.69853e-05
0.00495 0 4.72559e-05 -8.46937e-05 9.69853e-05
0.004975 0 4.84189e-05 -8.43445e-05 9.72542e-05
0.004975 0 4.84189e-05 -8.43445e-05 9.72542e-05
0.005 0 4.95921e-05 -8.39456e-05 9.75e-05
0.005 0 4.95921e-05 -8.39456e-05 9.75e-05
0.005025 0 5.07739e-05 -8.34977e-05 9.77234e-05
0.005025 0 5.07739e-05 -8.34977e-05 9.77234e-05
0.00505 0 5.19627e-05 -8.30017e-05 9.79255e-05
0.00505 0 5.19627e-05 -8.30017e-05 9.79255e-05
0.005075 0 5.31564e-05 -8.24585e-05 9.81071e-05
0.005075 0 5.31564e-05 -8.24585e-05 9.81071e-05
0.0051 0 5.43537e-05 -8.18691e-05 9.82694e-05
0.0051 0 5.43537e-05 -8.18691e-05 9.82694e-05
0.005125 0 5.55525e-05 -8.12346e-05 9.84132e-05
0.005125 0 5.55525e-05 -8.12346e-05 9.84132e-05
0.00515 0 5.67513e-05 -8.05562e-05 9.85394e-05
0.00515 0 5.67513e-05 -8.05562e-05 9.85394e-05
0.005175 0 5.79486e-05 -7.9835e-05 9.86492e-05
0.005175 0 5.79486e-05 -7.9835e-05 9.86492e-05
0.0052 0 5.91426e-05 -7.90725e-05 9.87436e-05
0.0052 0 5.91426e-05 -7.90725e-05 9.87436e-05
0.005225 0 6.03316e-05 -7.82698e-05 9.88234e-05
0.005225 0 6.03316e-05 -7.82698e-05 9.88234e-05
0.00525 0 6.15146e-05 -7.74283e-05 9.88898e-05
0.00525 0 6.15146e-05 -7.74283e-05 9.88898e-05
0.005275 0 6.26902e-05 -7.65496e-05 9.89439e-05
0.005275 0 6.26902e-05 -7.65496e-05 9.89439e-05
0.0053 0 6.38569e-05 -7.56349e-05 9.89866e-05
0.0053 0 6.38569e-05 -7.56349e-05 9.89866e-05
0.005325 0 6.50142e-05 -7.46858e-05 9.90192e-05
0.005325 0 6.50142e-05 -7.46858e-05 9.90192e-05
0.00535 0 6.61608e-05 -7.37037e-05 9.90428e-05
0.00535 0 6.61608e-05 -7.37037e-05 9.90428e-05
0.005375 0 6.7296e-05 -7.26902e-05 9.90587e-05
0.005375 0 6.7296e-05 -7.26902e-05 9.90587e-05
0.0054 0 6.84195e-05 -7.16467e-05 9.9068e-05
0.0054 0 6.84195e-05 -7.16467e-05 9.9068e-05
0.005425 0 6.95307e-05 -7.05748e-05 9.90723e-05
0.005425 0 6.95307e-05 -7.05748e-05 9.90723e-05
0.00545 0 7.06293e-05 -6.9476e-05 9.90728e-05
0.00545 0 7.06293e-05 -6.9476e-05 9.90728e-05
0.005475 0 7.17156e-05 -6.83517e-05 9.90711e-05
0.005475 0 7.17156e-05 -6.83517e-05 9.90711e-05
0.0055 0 7.27894e-05 -6.72034e-05 9.90687e-05
0.0055 0 7.27894e-05 -6.72034e-05 9.90687e-05
0.005525 0 7.38511e-05 -6.60327e-05 9.90671e-05
0.005525 0 7.38511e-05 -6.60327e-05 9.90671e-05
0.00555 0 7.49013e-05 -6.48408e-05 9.90683e-05
0.00555 0 7.49013e-05 -6.48408e-05 9.90683e-05
0.005575 0 7.59406e-05 -6.36291e-05 9.90739e-05
0.005575 0 7.59406e-05 -6.36291e-05 9.90739e-05
0.0056 0 7.69695e-05 -6.23989e-05 9.90855e-05
0.0056 0 7.69695e-05 -6.23989e-05 9.90855e-05
0.005625 0 7.79893e-05 -6.11516e-05 9.91052e-05
0.005625 0 7.79893e-05 -6.11516e-05 9.91052e-05
0.00565 0 7.9001e-05 -5.98882e-05 9.9135e-05
0.00565 0 7.9001e-05 -5.98882e-05 9.9135e-05
0.005675 0 8.00056e-05 -5.86098e-05 9.91766e-05
0.005675 0 8.00056e-05 -5.86098e-05 9.91766e-05
0.0057 0 8.10045e-05 -5.73176e-05 9.92323e-05
0.0057 0 8.10045e-05 -5.73176e-05 9.92323e-05
0.005725 0 8.19992e-05 -5.60125e-05 9.93039e-05
0.005725 0 8.19992e-05 -5.60125e-05 9.93039e-05
0.00575 0 8.29908e-05 -5.46953e-05 9.93934e-05
0.00575 0 8.29908e-05 -5.46953e-05 9.93934e-05
0.005775 0 8.3981e-05 -5.33668e-05 9.95029e-05
0.005775 0 8.3981e-05 -5.33668e-05 9.95029e-05
0.0058 0 8.49712e-05 -5.20277e-05 9.96343e-05
0.0058 0 8.49712e-05 -5.20277e-05 9.96343e-05
0.005825 0 8.5963e-05 -5.06787e-05 9.97896e-05
0.005825 0 8.5963e-05 -5.06787e-05 9.97896e-05
0.00585 0 8.69578e-05 -4.93202e-05 9.99707e-05
0.00585 0 8.69578e-05 -4.93202e-05 9.99707e-05
0.005875 0 8.79572e-05 -4.79527e-05 0.00010018
0.005875 0 8.79572e-05 -4.79527e-05 0.00010018
0.0059 0 8.89625e-05 -4.65766e-05 0.000100418
0.0059 0 8.89625e-05 -4.65766e-05 0.000100418
0.005925 0 8.99753e-05 -4.5192e-05 0.000100687
0.005925 0 8.99753e-05 -4.5192e-05 0.000100687
0.00595 0 9.09967e-05 -4.37992e-05 0.000100989
0.00595 0 9.09967e-05 -4.37992e-05 0.000100989
0.005975 0 9.20278e-05 -4.23983e-05 0.000101325
0.005975 0 9.20278e-05 -4.23983e-05 0.000101325
0.006 0 9.30699e-05 -4.09892e-05 0.000101696
0.006 0 9.30699e-05 -4.09892e-05 0.000101696
0.006025 0 9.41239e-05 -3.9572e-05 0.000102104
0.006025 0 9.41239e-05 -3.9572e-05 0.000102104
0.00605 0 9.51905e-05 -3.81464e-05 0.000102549
0.00605 0 9.51905e-05 -3.81464e-05 0.000102549
0.006075 0 9.62705e-05 -3.67125e-05 0.000103033
0.006075 0 9.62705e-05 -3.67125e-05 0.000103033
0.0061 0 9.73644e-05 -3.52698e-05 0.000103556
0.0061 0 9.73644e-05 -3.52698e-05 0.000103556
0.006125 0 9.84724e-05 -3.38182e-05 0.000104118
0.006125 0 9.84724e-05 -3.38182e-05 0.000104118
0.00615 0 9.95947e-05 -3.23574e-05 0.000104719
0.00615 0 9.95947e-05 -3.23574e-05 0.000104719
0.006175 0 0.000100731 -3.08869e-05 0.00010536
0.006175 0 0.000100731 -3.08869e-05 0.00010536
0.0062 0 0.000101882 -2.94064e-05 0.000106041
0.0062 0 0.000101882 -2.94064e-05 0.000106041
0.006225 0 0.000103047 -2.79156e-05 0.000106761
0.006225 0 0.000103047 -2.79156e-05 0.000106761
0.00625 0 0.000104224 -2.6414e-05 0.000107519
0.00625 0 0.000104224 -2.6414e-05 0.000107519
0.006275 0 0.000105414 -2.49012e-05 0.000108316
0.006275 0 0.000105414 -2.49012e-05 0.000108316
0.0063 0 0.000106616 -2.33768e-05 0.000109149
0.0063 0 0.000106616 -2.33768e-05 0.000109149
0.006325 0 0.000107828 -2.18404e-05 0.000110017
0.006325 0 0.000107828 -2.18404e-05 0.000110017
0.00635 0 0.000109048 -2.02916e-05 0.00011092
0.00635 0 0.000109048 -2.02916e-05 0.00011092
0.006375 0 0.000110277 -1.87301e-05 0.000111856
0.006375 0 0.000110277 -1.87301e-05 0.000111856
0.0064 0 0.000111511 -1.71555e-05 0.000112823
0.0064 0 0.000111511 -1.71555e-05 0.000112823
0.006425 0 0.000112749 -1.55674e-05 0.000113819
0.006425 0 0.000112749 -1.55674e-05 0.000113819
0.00645 0 0.00011399 -1.39657e-05 0.000114842
0.00645 0 0.00011399 -1.39657e-05 0.000114842
0.006475 0 0.000115231 -1.235e-05 0.000115891
0.006475 0 0.000115231 -1.235e-05 0.000115891
0.0065 0 0.00011647 -1.07201e-05 0.000116962
0.0065 0 0.00011647 -1.07201e-05 0.000116962
0.006525 0 0.000117705 -9.07592e-06 0.000118054
0.006525 0 0.000117705 -9.07592e-06 0.000118054
0.00655 0 0.000118933 -7.41732e-06 0.000119164
0.00655 0 0.000118933 -7.41732e-06 0.000119164
0.006575 0 0.000120152 -5.74423e-06 0.000120289
0.006575 0 0.000120152 -5.74423e-06 0.000120289
0.0066 0 0.00012136 -4.05664e-06 0.000121428
0.0066 0 0.00012136 -4.05664e-06 0.000121428
0.006625 0 0.000122554 -2.35462e-06 0.000122576
0.006625 0 0.000122554 -2.35462e-06 0.000122576
0.00665 0 0.000123731 -6.38264e-07 0.000123732
0.00665 0 0.000123731 -6.38264e-07 0.000123732
0.006675 0 0.000124888 1.09226e-06 0.000124893
0.006675 0 0.000124888 1.09226e-06 0.000124893
0.0067 0 0.000126024 2.83673e-06 0.000126056
0.0067 0 0.000126024 2.83673e-06 0.000126056
0.006725 0 0.000127134 4.59486e-06 0.000127217
0.006725 0 0.000127134 4.59486e-06 0.000127217
0.00675 0 0.000128218 6.3663e-06 0.000128375
0.00675 0 0.000128218 6.3663e-06 0.000128375
0.006775 0 0.000129271 8.15064e-06 0.000129527
0.006775 0 0.000129271 8.15064e-06 0.000129527
0.0068 0 0.000130291 9.9474e-06 0.00013067
0.0068 0 0.000130291 9.9474e-06 0.00013067
0.006825 0 0.000131275 1.1756e-05 0.0001318
0.006825 0 0.000131275 1.1756e-05 0.0001318
0.00685 0 0.000132221 1.35759e-05 0.000132917
0.00685 0 0.000132221 1.35759e-05 0.000132917
0.006875 0 0.000133127 1.54065e-05 0.000134015
0.006875 0 0.000133127 1.54065e-05 0.000134015
0.0069 0 0.000133989 1.72469e-05 0.000135095
0.0069 0 0.000133989 1.72469e-05 0.000135095
0.006925 0 0.000134805 1.90963e-05 0.000136151
0.006925 0 0.000134805 1.90963e-05 0.000136151
0.00695 0 0.000135573 2.09539e-05 0.000137183
0.00695 0 0.000135573 2.09539e-05 0.000137183
0.006975 0 0.00013629 2.28189e-05 0.000138187
0.006975 0 0.00013629 2.28189e-05 0.000138187
0.007 0 0.000136954 2.469e-05 0.000139162
0.007 0 0.000136954 2.469e-05 0.000139162
0.007025 0 0.000137563 2.65663e-05 0.000140105
0.007025 0 0.000137563 2.65663e-05 0.000140105
0.00705 0 0.000138115 2.84467e-05 0.000141014
0.00705 0 0.000138115 2.84467e-05 0.000141014
0.007075 0 0.000138606 3.03299e-05 0.000141886
0.007075 0 0.000138606 3.03299e-05 0.000141886
0.0071 0 0.000139037 3.22147e-05 0.00014272
0.0071 0 0.000139037 3.22147e-05 0.00014272
0.007125 0 0.000139404 3.40996e-05 0.000143514
0.007125 0 0.000139404 3.40996e-05 0.000143514
0.00715 0 0.000139705 3.59834e-05 0.000144265
0.00715 0 0.000139705 3.59834e-05 0.000144265
0.007175 0 0.00013994 3.78644e-05 0.000144972
0.007175 0 0.00013994 3.78644e-05 0.000144972
0.0072 0 0.000140106 3.97413e-05 0.000145634
0.0072 0 0.000140106 3.97413e-05 0.000145634
0.007225 0 0.000140203 4.16123e-05 0.000146248
0.007225 0 0.000140203 4.16123e-05 0.000146248
0.00725 0 0.000140228 4.34757e-05 0.000146813
0.00725 0 0.000140228 4.34757e-05 0.000146813
0.007275 0 0.000140181 4.533e-05 0.000147327
0.007275 0 0.000140181 4.533e-05 0.000147327
0.0073 0 0.000140059 4.71732e-05 0.00014779
0.0073 0 0.000140059 4.71732e-05 0.00014779
0.007325 0 0.000139864 4.90035e-05 0.0001482
0.007325 0 0.000139864 4.90035e-05 0.0001482
0.00735 0 0.000139593 5.08191e-05 0.000148555
0.00735 0 0.000139593 5.08191e-05 0.000148555
0.007375 0 0.000139245 5.2618e-05 0.000148855
0.007375 0 0.000139245 5.2618e-05 0.000148855
0.0074 0 0.000138821 5.43983e-05 0.000149099
0.0074 0 0.000138821 5.43983e-05 0.000149099
0.007425 0 0.00013832 5.61579e-05 0.000149285
0.007425 0 0.00013832 5.61579e-05 0.000149285
0.00745 0 0.000137741 5.78949e-05 0.000149413
0.00745 0 0.000137741 5.78949e-05 0.000149413
0.007475 0 0.000137084 5.96072e-05 0.000149483
0.007475 0 0.000137084 5.96072e-05 0.000149483
0.0075 0 0.00013635 6.12928e-05 0.000149493
0.0075 0 0.00013635 6.12928e-05 0.000149493
0.007525 0 0.000135539 6.29496e-05 0.000149444
0.007525 0 0.000135539 6.29496e-05 0.000149444
0.00755 0 0.000134651 6.45756e-05 0.000149335
0.00755 0 0.000134651 6.45756e-05 0.000149335
0.007575 0 0.000133686 6.61688e-05 0.000149165
0.007575 0 0.000133686 6.61688e-05 0.000149165
0.0076 0 0.000132645 6.77272e-05 0.000148935
0.0076 0 0.000132645 6.77272e-05 0.000148935
0.007625 0 0.00013153 6.9249e-05 0.000148646
0.007625 0 0.00013153 6.9249e-05 0.000148646
0.00765 0 0.000130341 7.07321e-05 0.000148296
0.00765 0 0.000130341 7.07321e-05 0.000148296
0.007675 0 0.000129078 7.21748e-05 0.000147887
0.007675 0 0.000129078 7.21748e-05 0.000147887
0.0077 0 0.000127745 7.35753e-05 0.000147418
0.0077 0 0.000127745 7.35753e-05 0.000147418
0.007725 0 0.000126342 7.49319e-05 0.000146891
0.007725 0 0.000126342 7.49319e-05 0.000146891
0.00775 0 0.000124871 7.62431e-05 0.000146307
0.00775 0 0.000124871 7.62431e-05 0.000146307
0.007775 0 0.000123333 7.75073e-05 0.000145666
0.007775 0 0.000123333 7.75073e-05 0.000145666
0.0078 0 0.000121732 7.87232e-05 0.000144969
0.0078 0 0.000121732 7.87232e-05 0.000144969
0.007825 0 0.000120068 7.98894e-05 0.000144218
0.007825 0 0.000120068 7.98894e-05 0.000144218
0.00785 0 0.000118345 8.10048e-05 0.000143413
0.00785 0 0.000118345 8.10048e-05 0.000143413
0.007875 0 0.000116564 8.20684e-05 0.000142557
0.007875 0 0.000116564 8.20684e-05 0.000142557
0.0079 0 0.000114729 8.30792e-05 0.000141651
0.0079 0 0.000114729 8.30792e-05 0.000141651
0.007925 0 0.000112842 8.40365e-05 0.000140696
0.007925 0 0.000112842 8.40365e-05 0.000140696
0.00795 0 0.000110906 8.49396e-05 0.000139696
0.00795 0 0.000110906 8.49396e-05 0.000139696
0.007975 0 0.000108923 8.57881e-05 0.00013865
0.007975 0 0.000108923 8.57881e-05 0.00013865
0.008 0 0.000106898 8.65814e-05 0.000137562
0.008 0 0.000106898 8.65814e-05 0.000137562
0.008025 0 0.000104832 8.73194e-05 0.000136434
0.008025 0 0.000104832 8.73194e-05 0.000136434