# Time Dx Dy Dz magD
0.0001 0 6.04816e-10 -7.30431e-11 6.0921e-10
0.0002 0 1.84265e-09 -3.00443e-10 1.86698e-09
0.0003 0 3.84062e-09 -8.51189e-10 3.93382e-09
0.0004 0 6.89016e-09 -2.16966e-09 7.22369e-09
0.0005 0 1.14751e-08 -5.31233e-09 1.26451e-08
0.0006 0 1.81651e-08 -1.25556e-08 2.20819e-08
0.0007 0 2.77909e-08 -2.8373e-08 3.9716e-08
0.0008 0 4.13522e-08 -6.07486e-08 7.34874e-08
0.0009 0 6.01618e-08 -1.22608e-07 1.36573e-07
0.001 0 8.58096e-08 -2.32959e-07 2.48261e-07
0.0011 0 1.20155e-07 -4.17245e-07 4.34201e-07
0.0012 0 1.6499e-07 -7.06511e-07 7.2552e-07
0.0013 0 2.22305e-07 -1.13527e-06 1.15683e-06
0.0014 0 2.94098e-07 -1.73832e-06 1.76302e-06
0.0015 0 3.82114e-07 -2.54715e-06 2.57565e-06
0.0016 0 4.88315e-07 -3.58661e-06 3.6197e-06
0.0017 0 6.14865e-07 -4.87257e-06 4.91122e-06
0.0018 0 7.64097e-07 -6.41089e-06 6.45627e-06
0.0019 0 9.38787e-07 -8.19775e-06 8.25133e-06
0.002 0 1.14239e-06 -1.0221e-05 1.02847e-05
0.0021 0 1.37888e-06 -1.24625e-05 1.25385e-05
0.0022 0 1.65286e-06 -1.48997e-05 1.49911e-05
0.0023 0 1.9697e-06 -1.75084e-05 1.76189e-05
0.0024 0 2.33553e-06 -2.0264e-05 2.03981e-05
0.0025 0 2.75672e-06 -2.31424e-05 2.3306e-05
0.0026 0 3.24031e-06 -2.61211e-05 2.63213e-05
0.0027 0 3.7939e-06 -2.9179e-05 2.94246e-05
0.0028 0 4.42524e-06 -3.22968e-05 3.25985e-05
0.0029 0 5.14234e-06 -3.54566e-05 3.58276e-05
0.003 0 5.95384e-06 -3.86419e-05 3.90979e-05
0.0031 0 6.86807e-06 -4.18369e-05 4.23969e-05
0.0032 0 7.89417e-06 -4.50266e-05 4.57133e-05
0.0033 0 9.04152e-06 -4.81959e-05 4.90367e-05
0.0034 0 1.03198e-05 -5.13298e-05 5.23569e-05
0.0035 0 1.17391e-05 -5.44122e-05 5.56641e-05
0.0036 0 1.33097e-05 -5.74253e-05 5.89475e-05
0.0037 0 1.5042e-05 -6.03488e-05 6.21951e-05
0.0038 0 1.6946e-05 -6.31584e-05 6.53923e-05
0.0039 0 1.90308e-05 -6.58249e-05 6.85207e-05
0.004 0 2.13042e-05 -6.83126e-05 7.15576e-05
0.0041 0 2.37724e-05 -7.05794e-05 7.44753e-05
0.0042 0 2.64387e-05 -7.25768e-05 7.72425e-05
0.0043 0 2.93035e-05 -7.42523e-05 7.98254e-05
0.0044 0 3.23645e-05 -7.55519e-05 8.21921e-05
0.0045 0 3.56158e-05 -7.64244e-05 8.43159e-05
0.0046 0 3.90482e-05 -7.6825e-05 8.61791e-05
0.0047 0 4.26493e-05 -7.67192e-05 8.7777e-05
0.0048 0 4.64041e-05 -7.60844e-05 8.91189e-05
0.0049 0 5.02952e-05 -7.49116e-05 9.02294e-05
0.005 0 5.43037e-05 -7.32041e-05 9.11468e-05
0.0051 0 5.84093e-05 -7.09768e-05 9.19204e-05
0.0052 0 6.25912e-05 -6.82533e-05 9.26076e-05
0.0053 0 6.68283e-05 -6.50636e-05 9.327e-05
0.0054 0 7.10992e-05 -6.14417e-05 9.3969e-05
0.0055 0 7.53819e-05 -5.74234e-05 9.47622e-05
0.0056 0 7.96539e-05 -5.30448e-05 9.57e-05
0.0057 0 8.38911e-05 -4.8341e-05 9.68224e-05
0.0058 0 8.80673e-05 -4.33456e-05 9.81565e-05
0.0059 0 9.21529e-05 -3.80902e-05 9.97147e-05
0.006 0 9.6115e-05 -3.26048e-05 0.000101495
0.0061 0 9.99164e-05 -2.69181e-05 0.000103479
0.0062 0 0.000103516 -2.10581e-05 0.000105636
0.0063 0 0.000106867 -1.50531e-05 0.000107922
0.0064 0 0.000109921 -8.93238e-06 0.000110283
0.0065 0 0.000112626 -2.72721e-06 0.000112659
0.0066 0 0.000114929 3.52866e-06 0.000114984
0.0067 0 0.000116779 9.79831e-06 0.000117189
0.0068 0 0.000118125 1.60414e-05 0.00011921
0.0069 0 0.000118923 2.22143e-05 0.00012098
0.007 0 0.000119135 2.82703e-05 0.000122444
0.0071 0 0.000118731 3.41605e-05 0.000123548
0.0072 0 0.000117692 3.98346e-05 0.00012425
0.0073 0 0.000116008 4.52423e-05 0.000124518
0.0074 0 0.000113683 5.03346e-05 0.000124328
0.0075 0 0.000110732 5.50653e-05 0.000123668
0.0076 0 0.000107183 5.93922e-05 0.000122538
0.0077 0 0.000103072 6.32788e-05 0.000120947
0.0078 0 9.84475e-05 6.66951e-05 0.000118912
0.0079 0 9.33635e-05 6.96183e-05 0.000116462
0.008 0 8.78811e-05 7.20336e-05 0.000113631
0.0081 0 8.20651e-05 7.39339e-05 0.000110458
0.0082 0 7.59824e-05 7.53202e-05 0.000106988
0.0083 0 6.96995e-05 7.62004e-05 0.000103269
0.0084 0 6.32817e-05 7.65891e-05 9.93502e-05
0.0085 0 5.67905e-05 7.65064e-05 9.52806e-05
0.0086 0 5.02838e-05 7.59771e-05 9.11097e-05
0.0087 0 4.38141e-05 7.50294e-05 8.68855e-05
0.0088 0 3.74284e-05 7.36939e-05 8.26539e-05
0.0089 0 3.11683e-05 7.2003e-05 7.84594e-05
0.009 0 2.50703e-05 6.99895e-05 7.43441e-05
0.0091 0 1.91665e-05 6.76866e-05 7.03479e-05
0.0092 0 1.34845e-05 6.51269e-05 6.65082e-05
0.0093 0 8.04857e-06 6.23422e-05 6.28596e-05
0.0094 0 2.8803e-06 5.93636e-05 5.94334e-05
0.0095 0 -2.00079e-06 5.62209e-05 5.62565e-05
0.0096 0 -6.57664e-06 5.29432e-05 5.33501e-05
0.0097 0 -1.08305e-05 4.95585e-05 5.07281e-05
0.0098 0 -1.47467e-05 4.6094e-05 4.83955e-05
0.0099 0 -1.8311e-05 4.25764e-05 4.63469e-05
0.01 0 -2.151e-05 3.90315e-05 4.45661e-05
0.0101 0 -2.43321e-05 3.54847e-05 4.30258e-05
0.0102 0 -2.6768e-05 3.19605e-05 4.16893e-05
0.0103 0 -2.8811e-05 2.84826e-05 4.05134e-05
0.0104 0 -3.04575e-05 2.50737e-05 3.94506e-05
0.0105 0 -3.17082e-05 2.1755e-05 3.84537e-05
0.0106 0 -3.25677e-05 1.85464e-05 3.74783e-05
0.0107 0 -3.30457e-05 1.54656e-05 3.64856e-05
0.0108 0 -3.31568e-05 1.25282e-05 3.54448e-05
0.0109 0 -3.29213e-05 9.74728e-06 3.4334e-05
0.011 0 -3.23645e-05 7.13287e-06 3.31412e-05
0.0111 0 -3.15163e-05 4.69199e-06 3.18637e-05
0.0112 0 -3.04119e-05 2.42838e-06 3.05087e-05
0.0113 0 -2.90897e-05 3.42378e-07 2.90917e-05
0.0114 0 -2.75919e-05 -1.56903e-06 2.76365e-05
0.0115 0 -2.59628e-05 -3.31218e-06 2.61732e-05
0.0116 0 -2.42479e-05 -4.89655e-06 2.47373e-05
0.0117 0 -2.24933e-05 -6.33447e-06 2.33682e-05
0.0118 0 -2.07444e-05 -7.64088e-06 2.21069e-05
0.0119 0 -1.90449e-05 -8.83285e-06 2.09936e-05
0.012 0 -1.74358e-05 -9.92921e-06 2.00648e-05
0.0121 0 -1.59547e-05 -1.095e-05 1.93509e-05
0.0122 0 -1.46351e-05 -1.19162e-05 1.88728e-05
0.0123 0 -1.35058e-05 -1.28487e-05 1.86412e-05
0.0124 0 -1.25905e-05 -1.37685e-05 1.86573e-05
0.0125 0 -1.19078e-05 -1.46956e-05 1.89145e-05
0.0126 0 -1.14704e-05 -1.5649e-05 1.94027e-05
0.0127 0 -1.12861e-05 -1.6646e-05 2.01113e-05
0.0128 0 -1.13574e-05 -1.77017e-05 2.10319e-05
0.0129 0 -1.16816e-05 -1.8829e-05 2.21584e-05
0.013 0 -1.22519e-05 -2.00384e-05 2.34872e-05
0.0131 0 -1.30577e-05 -2.13371e-05 2.50155e-05
0.0132 0 -1.40849e-05 -2.27296e-05 2.67398e-05
0.0133 0 -1.53169e-05 -2.42171e-05 2.86544e-05
0.0134 0 -1.67346e-05 -2.57977e-05 3.07501e-05
0.0135 0 -1.83176e-05 -2.74663e-05 3.30142e-05
0.0136 0 -2.00447e-05 -2.92149e-05 3.54302e-05
0.0137 0 -2.18941e-05 -3.10323e-05 3.79784e-05
0.0138 0 -2.38444e-05 -3.29047e-05 4.06359e-05
0.0139 0 -2.58746e-05 -3.48156e-05 4.33777e-05
0.014 0 -2.79645e-05 -3.67464e-05 4.61769e-05
0.0141 0 -3.00954e-05 -3.86763e-05 4.9006e-05
0.0142 0 -3.22501e-05 -4.05831e-05 5.18368e-05
0.0143 0 -3.44129e-05 -4.24431e-05 5.46412e-05
0.0144 0 -3.65702e-05 -4.42318e-05 5.73919e-05
0.0145 0 -3.87099e-05 -4.59241e-05 6.00623e-05
0.0146 0 -4.08218e-05 -4.74949e-05 6.26274e-05
0.0147 0 -4.28978e-05 -4.89191e-05 6.50638e-05
0.0148 0 -4.4931e-05 -5.01724e-05 6.73504e-05
0.0149 0 -4.69163e-05 -5.12316e-05 6.94681e-05
0.015 0 -4.88499e-05 -5.20744e-05 7.14007e-05
0.0151 0 -5.07289e-05 -5.26804e-05 7.31345e-05
0.0152 0 -5.25517e-05 -5.30312e-05 7.46591e-05
0.0153 0 -5.43172e-05 -5.31102e-05 7.59674e-05
0.0154 0 -5.60246e-05 -5.29035e-05 7.70554e-05
0.0155 0 -5.76737e-05 -5.23996e-05 7.79228e-05
0.0156 0 -5.92641e-05 -5.15896e-05 7.8573e-05
0.0157 0 -6.07954e-05 -5.04677e-05 7.90131e-05
0.0158 0 -6.22668e-05 -4.90306e-05 7.92537e-05
0.0159 0 -6.36771e-05 -4.72782e-05 7.93095e-05
0.016 0 -6.50243e-05 -4.52133e-05 7.91985e-05
0.0161 0 -6.6306e-05 -4.28417e-05 7.89424e-05
0.0162 0 -6.75188e-05 -4.01718e-05 7.85657e-05
0.0163 0 -6.86586e-05 -3.72151e-05 7.80959e-05
0.0164 0 -6.97204e-05 -3.39858e-05 7.75627e-05
0.0165 0 -7.06983e-05 -3.05006e-05 7.6997e-05
0.0166 0 -7.15855e-05 -2.67787e-05 7.64303e-05
0.0167 0 -7.23748e-05 -2.28416e-05 7.58937e-05
0.0168 0 -7.30579e-05 -1.87128e-05 7.54163e-05
0.0169 0 -7.3626e-05 -1.44177e-05 7.50244e-05
0.017 0 -7.40702e-05 -9.98352e-06 7.474e-05
0.0171 0 -7.4381e-05 -5.43876e-06 7.45795e-05
0.0172 0 -7.45486e-05 -8.13107e-07 7.4553e-05
0.0173 0 -7.45632e-05 3.86283e-06 7.46632e-05
0.0174 0 -7.44154e-05 8.55781e-06 7.49059e-05
0.0175 0 -7.40958e-05 1.32402e-05 7.52695e-05
0.0176 0 -7.35953e-05 1.78785e-05 7.57358e-05
0.0177 0 -7.29056e-05 2.24409e-05 7.62812e-05
0.0178 0 -7.2019e-05 2.68967e-05 7.68777e-05
0.0179 0 -7.09289e-05 3.12155e-05 7.7494e-05
0.018 0 -6.96294e-05 3.53679e-05 7.8097e-05
0.0181 0 -6.8116e-05 3.9326e-05 7.86532e-05
0.0182 0 -6.63856e-05 4.30632e-05 7.91295e-05
0.0183 0 -6.44365e-05 4.65546e-05 7.94946e-05
0.0184 0 -6.22686e-05 4.97772e-05 7.97191e-05
0.0185 0 -5.98831e-05 5.27102e-05 7.97769e-05
0.0186 0 -5.72836e-05 5.53349e-05 7.96453e-05
0.0187 0 -5.4475e-05 5.76352e-05 7.93054e-05
0.0188 0 -5.14644e-05 5.95974e-05 7.87429e-05
0.0189 0 -4.82608e-05 6.12105e-05 7.79477e-05
0.019 0 -4.48751e-05 6.24663e-05 7.69143e-05
0.0191 0 -4.13204e-05 6.33591e-05 7.56423e-05
0.0192 0 -3.76115e-05 6.38865e-05 7.41357e-05
0.0193 0 -3.37652e-05 6.40486e-05 7.24038e-05
0.0194 0 -2.98001e-05 6.38485e-05 7.04604e-05
0.0195 0 -2.57363e-05 6.32921e-05 6.83246e-05
0.0196 0 -2.15955e-05 6.23883e-05 6.60202e-05
0.0197 0 -1.74007e-05 6.11484e-05 6.3576e-05
0.0198 0 -1.31759e-05 5.95864e-05 6.10258e-05
0.0199 0 -8.9457e-06 5.7719e-05 5.84081e-05
0.02 0 -4.73543e-06 5.55648e-05 5.57662e-05
