# Time Dx Dy Dz magD
6.25e-06 0 3.18773e-13 -1.46967e-15 3.18776e-13
1.25e-05 0 9.09607e-13 -6.38021e-15 9.0963e-13
1.875e-05 0 1.86077e-12 -1.63171e-14 1.86084e-12
2.5e-05 0 3.2616e-12 -3.26407e-14 3.26176e-12
3.125e-05 0 5.20077e-12 -5.6437e-14 5.20107e-12
3.75e-05 0 7.76755e-12 -8.87241e-14 7.76806e-12
4.375e-05 0 1.10552e-11 -1.3081e-13 1.1056e-11
5e-05 0 1.51642e-11 -1.84739e-13 1.51653e-11
5.625e-05 0 2.02048e-11 -2.53748e-13 2.02064e-11
6.25e-05 0 2.6298e-11 -3.42667e-13 2.63002e-11
6.875e-05 0 3.35743e-11 -4.58235e-13 3.35774e-11
7.5e-05 0 4.21712e-11 -6.09332e-13 4.21756e-11
8.125e-05 0 5.22299e-11 -8.07129e-13 5.22362e-11
8.75e-05 0 6.38902e-11 -1.06522e-12 6.38991e-11
9.375e-05 0 7.72868e-11 -1.39972e-12 7.72994e-11
0.0001 0 9.25445e-11 -1.82941e-12 9.25625e-11
0.00010625 0 1.09779e-10 -2.37583e-12 1.09804e-10
0.0001125 0 1.2909e-10 -3.06356e-12 1.29126e-10
0.00011875 0 1.50563e-10 -3.92019e-12 1.50614e-10
0.000125 0 1.74265e-10 -4.97643e-12 1.74336e-10
0.00013125 0 2.00245e-10 -6.26604e-12 2.00343e-10
0.0001375 0 2.28532e-10 -7.82552e-12 2.28666e-10
0.00014375 0 2.59133e-10 -9.69381e-12 2.59314e-10
0.00015 0 2.92034e-10 -1.19117e-11 2.92277e-10
0.00015625 0 3.27199e-10 -1.4521e-11 3.27521e-10
0.0001625 0 3.64571e-10 -1.75638e-11 3.64994e-10
0.00016875 0 4.04071e-10 -2.10816e-11 4.0462e-10
0.000175 0 4.45602e-10 -2.51141e-11 4.46309e-10
0.00018125 0 4.8905e-10 -2.96977e-11 4.89951e-10
0.0001875 0 5.34287e-10 -3.48653e-11 5.35423e-10
0.00019375 0 5.81179e-10 -4.06441e-11 5.82598e-10
0.0002 0 6.29583e-10 -4.70551e-11 6.31339e-10
0.00020625 0 6.79356e-10 -5.41116e-11 6.81507e-10
0.0002125 0 7.30352e-10 -6.18184e-11 7.32964e-10
0.00021875 0 7.82438e-10 -7.01708e-11 7.85578e-10
0.000225 0 8.35486e-10 -7.91539e-11 8.39228e-10
0.00023125 0 8.89389e-10 -8.87421e-11 8.93805e-10
0.0002375 0 9.44054e-10 -9.88987e-11 9.4922e-10
0.00024375 0 9.99416e-10 -1.09577e-10 1.00541e-09
0.00025 0 1.05543e-09 -1.20718e-10 1.06232e-09
0.00025625 0 1.1121e-09 -1.32254e-10 1.11994e-09
0.0002625 0 1.16943e-09 -1.44111e-10 1.17828e-09
0.00026875 0 1.22749e-09 -1.56203e-10 1.23739e-09
0.000275 0 1.28636e-09 -1.68443e-10 1.29734e-09
0.00028125 0 1.34616e-09 -1.80739e-10 1.35824e-09
0.0002875 0 1.40704e-09 -1.92998e-10 1.42022e-09
0.00029375 0 1.4692e-09 -2.0513e-10 1.48345e-09
0.0003 0 1.53281e-09 -2.17049e-10 1.5481e-09
0.00030625 0 1.59815e-09 -2.28679e-10 1.61442e-09
0.0003125 0 1.66541e-09 -2.39953e-10 1.68261e-09
0.00031875 0 1.7349e-09 -2.50818e-10 1.75293e-09
0.000325 0 1.80682e-09 -2.6124e-10 1.82561e-09
0.00033125 0 1.8815e-09 -2.71202e-10 1.90095e-09
0.0003375 0 1.95912e-09 -2.8071e-10 1.97913e-09
0.00034375 0 2.03999e-09 -2.89795e-10 2.06047e-09
0.00035 0 2.12424e-09 -2.9851e-10 2.14512e-09
0.00035625 0 2.21215e-09 -3.06936e-10 2.23334e-09
0.0003625 0 2.3038e-09 -3.15178e-10 2.32526e-09
0.00036875 0 2.39937e-09 -3.23367e-10 2.42106e-09
0.000375 0 2.4989e-09 -3.31655e-10 2.52081e-09
0.00038125 0 2.60248e-09 -3.40218e-10 2.62462e-09
0.0003875 0 2.71006e-09 -3.49247e-10 2.73247e-09
0.00039375 0 2.82164e-09 -3.58949e-10 2.84438e-09
0.0004 0 2.93711e-09 -3.69538e-10 2.96027e-09
0.00040625 0 3.05638e-09 -3.81235e-10 3.08007e-09
0.0004125 0 3.17929e-09 -3.94259e-10 3.20364e-09
0.00041875 0 3.30566e-09 -4.08822e-10 3.33085e-09
0.000425 0 3.4353e-09 -4.25123e-10 3.46151e-09
0.00043125 0 3.568e-09 -4.43344e-10 3.59544e-09
0.0004375 0 3.70355e-09 -4.63641e-10 3.73246e-09
0.00044375 0 3.84174e-09 -4.86142e-10 3.87238e-09
0.00045 0 3.98237e-09 -5.1094e-10 4.01502e-09
0.00045625 0 4.12525e-09 -5.38091e-10 4.1602e-09
0.0004625 0 4.27023e-09 -5.67608e-10 4.30779e-09
0.00046875 0 4.41725e-09 -5.99465e-10 4.45774e-09
0.000475 0 4.56619e-09 -6.3359e-10 4.60994e-09
0.00048125 0 4.71708e-09 -6.69869e-10 4.76441e-09
0.0004875 0 4.86991e-09 -7.08148e-10 4.92113e-09
0.00049375 0 5.0248e-09 -7.48236e-10 5.08021e-09
0.0005 0 5.18187e-09 -7.89909e-10 5.24173e-09
0.00050625 0 5.34132e-09 -8.3292e-10 5.40587e-09
0.0005125 0 5.50339e-09 -8.77001e-10 5.57283e-09
0.00051875 0 5.66838e-09 -9.21874e-10 5.74285e-09
0.000525 0 5.83666e-09 -9.67261e-10 5.91626e-09
0.00053125 0 6.00865e-09 -1.0129e-09 6.09342e-09
0.0005375 0 6.18476e-09 -1.05852e-09 6.27469e-09
0.00054375 0 6.36546e-09 -1.10393e-09 6.46047e-09
0.00055 0 6.55117e-09 -1.14892e-09 6.65115e-09
0.00055625 0 6.74233e-09 -1.19338e-09 6.84713e-09
0.0005625 0 6.93936e-09 -1.23721e-09 7.04879e-09
0.00056875 0 7.14264e-09 -1.28039e-09 7.2565e-09
0.000575 0 7.35251e-09 -1.32298e-09 7.47059e-09
0.00058125 0 7.56924e-09 -1.36511e-09 7.69136e-09
0.0005875 0 7.79309e-09 -1.40695e-09 7.91907e-09
0.00059375 0 8.0242e-09 -1.44879e-09 8.15394e-09
0.0006 0 8.26269e-09 -1.49095e-09 8.39612e-09
0.00060625 0 8.50857e-09 -1.53383e-09 8.64571e-09
0.0006125 0 8.76181e-09 -1.5779e-09 8.90275e-09
0.00061875 0 9.0223e-09 -1.62365e-09 9.16723e-09
0.000625 0 9.28987e-09 -1.67163e-09 9.43907e-09
0.00063125 0 9.5643e-09 -1.72241e-09 9.71815e-09
0.0006375 0 9.84532e-09 -1.77656e-09 1.00043e-08
0.00064375 0 1.01326e-08 -1.83465e-09 1.02974e-08
0.00065 0 1.04259e-08 -1.89724e-09 1.05971e-08
0.00065625 0 1.07248e-08 -1.96485e-09 1.09033e-08
0.0006625 0 1.10291e-08 -2.03794e-09 1.12158e-08
0.00066875 0 1.13384e-08 -2.11691e-09 1.15343e-08
0.000675 0 1.16525e-08 -2.20212e-09 1.18587e-08
0.00068125 0 1.19711e-08 -2.29379e-09 1.21889e-08
0.0006875 0 1.22942e-08 -2.39209e-09 1.25248e-08
0.00069375 0 1.26217e-08 -2.49709e-09 1.28663e-08
0.0007 0 1.29535e-08 -2.60873e-09 1.32136e-08
0.00070625 0 1.32898e-08 -2.7269e-09 1.35666e-08
0.0007125 0 1.36307e-08 -2.85137e-09 1.39257e-08
0.00071875 0 1.39765e-08 -2.98183e-09 1.4291e-08
0.000725 0 1.43275e-08 -3.11791e-09 1.46629e-08
0.00073125 0 1.46843e-08 -3.25917e-09 1.50416e-08
0.0007375 0 1.50472e-08 -3.40513e-09 1.54277e-08
0.00074375 0 1.54168e-08 -3.55531e-09 1.58215e-08
0.00075 0 1.57938e-08 -3.7092e-09 1.62235e-08
0.00075625 0 1.61788e-08 -3.86634e-09 1.66343e-08
0.0007625 0 1.65723e-08 -4.0263e-09 1.70544e-08
0.00076875 0 1.69751e-08 -4.18871e-09 1.74842e-08
0.000775 0 1.73877e-08 -4.35329e-09 1.79244e-08
0.00078125 0 1.78107e-08 -4.51988e-09 1.83753e-08
0.0007875 0 1.82447e-08 -4.68843e-09 1.88375e-08
0.00079375 0 1.86902e-08 -4.85901e-09 1.93115e-08
0.0008 0 1.91474e-08 -5.03186e-09 1.97976e-08
0.00080625 0 1.96167e-08 -5.20736e-09 2.02961e-08
0.0008125 0 2.00984e-08 -5.38603e-09 2.08076e-08
0.00081875 0 2.05924e-08 -5.56856e-09 2.13321e-08
0.000825 0 2.10989e-08 -5.75574e-09 2.18699e-08
0.00083125 0 2.16177e-08 -5.94854e-09 2.24212e-08
0.0008375 0 2.21488e-08 -6.14798e-09 2.29862e-08
0.00084375 0 2.26918e-08 -6.35522e-09 2.35649e-08
0.00085 0 2.32464e-08 -6.57146e-09 2.41574e-08
0.00085625 0 2.38124e-08 -6.79793e-09 2.47638e-08
0.0008625 0 2.43894e-08 -7.03589e-09 2.5384e-08
0.00086875 0 2.4977e-08 -7.28656e-09 2.60182e-08
0.000875 0 2.55749e-08 -7.55114e-09 2.66664e-08
0.00088125 0 2.61827e-08 -7.83072e-09 2.73286e-08
0.0008875 0 2.68002e-08 -8.12632e-09 2.80051e-08
0.00089375 0 2.74271e-08 -8.43883e-09 2.8696e-08
0.0009 0 2.80633e-08 -8.76898e-09 2.94014e-08
0.00090625 0 2.87089e-08 -9.11737e-09 3.01218e-08
0.0009125 0 2.93638e-08 -9.48441e-09 3.08575e-08
0.00091875 0 3.00282e-08 -9.87038e-09 3.16088e-08
0.000925 0 3.07025e-08 -1.02754e-08 3.23764e-08
0.00093125 0 3.13871e-08 -1.06993e-08 3.31606e-08
0.0009375 0 3.20824e-08 -1.1142e-08 3.39621e-08
0.00094375 0 3.2789e-08 -1.16031e-08 3.47815e-08
0.00095 0 3.35078e-08 -1.20823e-08 3.56195e-08
0.00095625 0 3.42393e-08 -1.25791e-08 3.64769e-08
0.0009625 0 3.49844e-08 -1.3093e-08 3.73542e-08
0.00096875 0 3.5744e-08 -1.36235e-08 3.82522e-08
0.000975 0 3.65189e-08 -1.41701e-08 3.91717e-08
0.00098125 0 3.73099e-08 -1.47327e-08 4.01133e-08
0.0009875 0 3.81178e-08 -1.53108e-08 4.10778e-08
0.00099375 0 3.89434e-08 -1.59046e-08 4.2066e-08
0.001 0 3.97874e-08 -1.6514e-08 4.30784e-08
0.00100625 0 4.06503e-08 -1.71395e-08 4.41159e-08
0.0010125 0 4.15327e-08 -1.77815e-08 4.51791e-08
0.00101875 0 4.2435e-08 -1.84411e-08 4.62688e-08
0.001025 0 4.33574e-08 -1.91191e-08 4.73857e-08
0.00103125 0 4.43e-08 -1.9817e-08 4.85305e-08
0.0010375 0 4.5263e-08 -2.05363e-08 4.9704e-08
0.00104375 0 4.62464e-08 -2.12788e-08 5.09069e-08
0.00105 0 4.72498e-08 -2.20466e-08 5.21402e-08
0.00105625 0 4.82733e-08 -2.28418e-08 5.34046e-08
0.0010625 0 4.93164e-08 -2.36667e-08 5.47012e-08
0.00106875 0 5.03789e-08 -2.45239e-08 5.60308e-08
0.001075 0 5.14605e-08 -2.54156e-08 5.73945e-08
0.00108125 0 5.25608e-08 -2.63446e-08 5.87935e-08
0.0010875 0 5.36795e-08 -2.73132e-08 6.02288e-08
0.00109375 0 5.48165e-08 -2.83239e-08 6.17017e-08
0.0011 0 5.59716e-08 -2.93791e-08 6.32135e-08
0.00110625 0 5.71447e-08 -3.04807e-08 6.47657e-08
0.0011125 0 5.83358e-08 -3.1631e-08 6.63595e-08
0.00111875 0 5.95452e-08 -3.28316e-08 6.79967e-08
0.001125 0 6.07731e-08 -3.40843e-08 6.96786e-08
0.00113125 0 6.20199e-08 -3.53904e-08 7.14069e-08
0.0011375 0 6.32861e-08 -3.67512e-08 7.31832e-08
0.00114375 0 6.45725e-08 -3.81677e-08 7.50092e-08
0.00115 0 6.58798e-08 -3.96408e-08 7.68866e-08
0.00115625 0 6.7209e-08 -4.11713e-08 7.8817e-08
0.0011625 0 6.8561e-08 -4.27599e-08 8.08023e-08
0.00116875 0 6.99368e-08 -4.44073e-08 8.28442e-08
0.001175 0 7.13375e-08 -4.61141e-08 8.49444e-08
0.00118125 0 7.27643e-08 -4.78812e-08 8.71048e-08
0.0011875 0 7.42182e-08 -4.97095e-08 8.93274e-08
0.00119375 0 7.57004e-08 -5.16002e-08 9.1614e-08
0.0012 0 7.72118e-08 -5.35546e-08 9.39668e-08
0.00120625 0 7.87536e-08 -5.55746e-08 9.63881e-08
0.0012125 0 8.03265e-08 -5.76622e-08 9.88801e-08
0.00121875 0 8.19313e-08 -5.982e-08 1.01445e-07
0.001225 0 8.35689e-08 -6.2051e-08 1.04087e-07
0.00123125 0 8.52397e-08 -6.43589e-08 1.06808e-07
0.0012375 0 8.69444e-08 -6.67476e-08 1.09611e-07
0.00124375 0 8.86832e-08 -6.92217e-08 1.125e-07
0.00125 0 9.04565e-08 -7.17863e-08 1.1548e-07
0.00125625 0 9.22646e-08 -7.44472e-08 1.18554e-07
0.0012625 0 9.41076e-08 -7.72105e-08 1.21728e-07
0.00126875 0 9.59857e-08 -8.00829e-08 1.25006e-07
0.001275 0 9.78989e-08 -8.30715e-08 1.28394e-07
0.00128125 0 9.98474e-08 -8.61838e-08 1.31898e-07
0.0012875 0 1.01831e-07 -8.94279e-08 1.35525e-07
0.00129375 0 1.03851e-07 -9.2812e-08 1.39281e-07
0.0013 0 1.05907e-07 -9.63448e-08 1.43173e-07
0.00130625 0 1.07999e-07 -1.00035e-07 1.4721e-07
0.0013125 0 1.10128e-07 -1.03892e-07 1.514e-07
0.00131875 0 1.12295e-07 -1.07926e-07 1.5575e-07
0.001325 0 1.145e-07 -1.12145e-07 1.60271e-07
0.00133125 0 1.16744e-07 -1.1656e-07 1.64971e-07
0.0013375 0 1.19029e-07 -1.21181e-07 1.69861e-07
0.00134375 0 1.21356e-07 -1.26018e-07 1.74951e-07
0.00135 0 1.23727e-07 -1.31082e-07 1.80252e-07
0.00135625 0 1.26142e-07 -1.36383e-07 1.85774e-07
0.0013625 0 1.28603e-07 -1.41934e-07 1.91531e-07
0.00136875 0 1.31114e-07 -1.47745e-07 1.97533e-07
0.001375 0 1.33674e-07 -1.5383e-07 2.03795e-07
0.00138125 0 1.36287e-07 -1.602e-07 2.10329e-07
0.0013875 0 1.38954e-07 -1.66871e-07 2.1715e-07
0.00139375 0 1.41678e-07 -1.73855e-07 2.24273e-07
0.0014 0 1.44461e-07 -1.81169e-07 2.31713e-07
0.00140625 0 1.47304e-07 -1.88828e-07 2.39488e-07
0.0014125 0 1.50209e-07 -1.9685e-07 2.47614e-07
0.00141875 0 1.53179e-07 -2.05253e-07 2.5611e-07
0.001425 0 1.56215e-07 -2.14056e-07 2.64997e-07
0.00143125 0 1.5932e-07 -2.2328e-07 2.74293e-07
0.0014375 0 1.62494e-07 -2.32947e-07 2.84022e-07
0.00144375 0 1.65739e-07 -2.4308e-07 2.94207e-07
0.00145 0 1.69058e-07 -2.53704e-07 3.04871e-07
0.00145625 0 1.7245e-07 -2.64844e-07 3.1604e-07
0.0014625 0 1.75918e-07 -2.76528e-07 3.27742e-07
0.00146875 0 1.79463e-07 -2.88783e-07 3.40004e-07
0.001475 0 1.83086e-07 -3.01639e-07 3.52855e-07
0.00148125 0 1.86788e-07 -3.15127e-07 3.66327e-07
0.0014875 0 1.90571e-07 -3.29279e-07 3.80449e-07
0.00149375 0 1.94435e-07 -3.44125e-07 3.95256e-07
0.0015 0 1.98382e-07 -3.59702e-07 4.10781e-07
0.00150625 0 2.02413e-07 -3.76041e-07 4.27057e-07
0.0015125 0 2.06529e-07 -3.93179e-07 4.44121e-07
0.00151875 0 2.10731e-07 -4.1115e-07 4.62009e-07
0.001525 0 2.15022e-07 -4.29991e-07 4.80756e-07
0.00153125 0 2.19401e-07 -4.49737e-07 5.004e-07
0.0015375 0 2.23871e-07 -4.70426e-07 5.20979e-07
0.00154375 0 2.28433e-07 -4.92095e-07 5.4253e-07
0.00155 0 2.33089e-07 -5.14779e-07 5.65091e-07
0.00155625 0 2.3784e-07 -5.38517e-07 5.88701e-07
0.0015625 0 2.42688e-07 -5.63345e-07 6.13396e-07
0.00156875 0 2.47634e-07 -5.89301e-07 6.39217e-07
0.001575 0 2.52679e-07 -6.16421e-07 6.66199e-07
0.00158125 0 2.57825e-07 -6.44742e-07 6.94382e-07
0.0015875 0 2.63074e-07 -6.74301e-07 7.23802e-07
0.00159375 0 2.68425e-07 -7.05135e-07 7.54498e-07
0.0016 0 2.73881e-07 -7.37279e-07 7.86506e-07
0.00160625 0 2.79442e-07 -7.70771e-07 8.19864e-07
0.0016125 0 2.85109e-07 -8.05646e-07 8.54607e-07
0.00161875 0 2.90881e-07 -8.4194e-07 8.90772e-07
0.001625 0 2.9676e-07 -8.79687e-07 9.28394e-07
0.00163125 0 3.02744e-07 -9.18923e-07 9.67509e-07
0.0016375 0 3.08834e-07 -9.59683e-07 1.00815e-06
0.00164375 0 3.15029e-07 -1.002e-06 1.05035e-06
0.00165 0 3.21327e-07 -1.04591e-06 1.09415e-06
0.00165625 0 3.27729e-07 -1.09144e-06 1.13958e-06
0.0016625 0 3.34232e-07 -1.13862e-06 1.18666e-06
0.00166875 0 3.40835e-07 -1.18749e-06 1.23543e-06
0.001675 0 3.47536e-07 -1.23807e-06 1.28592e-06
0.00168125 0 3.54333e-07 -1.2904e-06 1.33816e-06
0.0016875 0 3.61225e-07 -1.34449e-06 1.39217e-06
0.00169375 0 3.68207e-07 -1.40039e-06 1.44798e-06
0.0017 0 3.75279e-07 -1.4581e-06 1.50562e-06
0.00170625 0 3.82438e-07 -1.51765e-06 1.56509e-06
0.0017125 0 3.89682e-07 -1.57906e-06 1.62644e-06
0.00171875 0 3.97007e-07 -1.64235e-06 1.68966e-06
0.001725 0 4.0441e-07 -1.70754e-06 1.75478e-06
0.00173125 0 4.11891e-07 -1.77463e-06 1.82181e-06
0.0017375 0 4.19445e-07 -1.84364e-06 1.89076e-06
0.00174375 0 4.2707e-07 -1.91458e-06 1.96163e-06
0.00175 0 4.34764e-07 -1.98745e-06 2.03445e-06
0.00175625 0 4.42524e-07 -2.06225e-06 2.1092e-06
0.0017625 0 4.50348e-07 -2.13899e-06 2.18589e-06
0.00176875 0 4.58232e-07 -2.21767e-06 2.26451e-06
0.001775 0 4.66176e-07 -2.29827e-06 2.34507e-06
0.00178125 0 4.74175e-07 -2.38079e-06 2.42755e-06
0.0017875 0 4.82229e-07 -2.46522e-06 2.51194e-06
0.00179375 0 4.90335e-07 -2.55155e-06 2.59824e-06
0.0018 0 4.9849e-07 -2.63977e-06 2.68642e-06
0.00180625 0 5.06692e-07 -2.72985e-06 2.77648e-06
0.0018125 0 5.1494e-07 -2.82179e-06 2.86839e-06
0.00181875 0 5.23231e-07 -2.91555e-06 2.96213e-06
0.001825 0 5.31563e-07 -3.01112e-06 3.05768e-06
0.00183125 0 5.39935e-07 -3.10847e-06 3.15502e-06
0.0018375 0 5.48344e-07 -3.20758e-06 3.25412e-06
0.00184375 0 5.56789e-07 -3.30842e-06 3.35495e-06
0.00185 0 5.65269e-07 -3.41097e-06 3.45749e-06
0.00185625 0 5.73781e-07 -3.51519e-06 3.56171e-06
0.0018625 0 5.82325e-07 -3.62106e-06 3.66758e-06
0.00186875 0 5.90899e-07 -3.72854e-06 3.77507e-06
0.001875 0 5.99503e-07 -3.83761e-06 3.88415e-06
0.00188125 0 6.08135e-07 -3.94823e-06 3.99479e-06
0.0018875 0 6.16795e-07 -4.06037e-06 4.10695e-06
0.00189375 0 6.25483e-07 -4.17401e-06 4.22061e-06
0.0019 0 6.342e-07 -4.2891e-06 4.33573e-06
0.00190625 0 6.42944e-07 -4.40562e-06 4.45228e-06
0.0019125 0 6.51717e-07 -4.52353e-06 4.57023e-06
0.00191875 0 6.60519e-07 -4.6428e-06 4.68955e-06
0.001925 0 6.69351e-07 -4.76341e-06 4.81021e-06
0.00193125 0 6.78216e-07 -4.88531e-06 4.93217e-06
0.0019375 0 6.87114e-07 -5.00849e-06 5.0554e-06
0.00194375 0 6.96047e-07 -5.1329e-06 5.17988e-06
0.00195 0 7.05018e-07 -5.25852e-06 5.30557e-06
0.00195625 0 7.14029e-07 -5.38531e-06 5.43244e-06
0.0019625 0 7.23082e-07 -5.51326e-06 5.56047e-06
0.00196875 0 7.32182e-07 -5.64233e-06 5.68964e-06
0.001975 0 7.41329e-07 -5.77249e-06 5.8199e-06
0.00198125 0 7.50529e-07 -5.90373e-06 5.95124e-06
0.0019875 0 7.59783e-07 -6.036e-06 6.08364e-06
0.00199375 0 7.69096e-07 -6.1693e-06 6.21706e-06
0.002 0 7.78471e-07 -6.3036e-06 6.35149e-06
0.00200625 0 7.87912e-07 -6.43888e-06 6.48691e-06
0.0020125 0 7.97421e-07 -6.57512e-06 6.6233e-06
0.00201875 0 8.07004e-07 -6.7123e-06 6.76064e-06
0.002025 0 8.16662e-07 -6.8504e-06 6.89891e-06
0.00203125 0 8.264e-07 -6.98942e-06 7.0381e-06
0.0020375 0 8.36221e-07 -7.12933e-06 7.17821e-06
0.00204375 0 8.46128e-07 -7.27013e-06 7.31921e-06
0.00205 0 8.56125e-07 -7.41181e-06 7.46109e-06
0.00205625 0 8.66215e-07 -7.55436e-06 7.60386e-06
0.0020625 0 8.764e-07 -7.69777e-06 7.7475e-06
0.00206875 0 8.86683e-07 -7.84204e-06 7.89201e-06
0.002075 0 8.97067e-07 -7.98716e-06 8.03738e-06
0.00208125 0 9.07554e-07 -8.13314e-06 8.18362e-06
0.0020875 0 9.18148e-07 -8.27996e-06 8.33071e-06
0.00209375 0 9.28849e-07 -8.42764e-06 8.47867e-06
0.0021 0 9.39661e-07 -8.57617e-06 8.62749e-06
0.00210625 0 9.50584e-07 -8.72555e-06 8.77718e-06
0.0021125 0 9.61621e-07 -8.87579e-06 8.92773e-06
0.00211875 0 9.72773e-07 -9.02689e-06 9.07916e-06
0.002125 0 9.84041e-07 -9.17885e-06 9.23145e-06
0.00213125 0 9.95428e-07 -9.33168e-06 9.38462e-06
0.0021375 0 1.00693e-06 -9.48538e-06 9.53867e-06
0.00214375 0 1.01856e-06 -9.63995e-06 9.69361e-06
0.00215 0 1.03031e-06 -9.79539e-06 9.84943e-06
0.00215625 0 1.04217e-06 -9.95172e-06 1.00061e-05
0.0021625 0 1.05416e-06 -1.01089e-05 1.01637e-05
0.00216875 0 1.06628e-06 -1.0267e-05 1.03222e-05
0.002175 0 1.07851e-06 -1.0426e-05 1.04816e-05
0.00218125 0 1.09087e-06 -1.05858e-05 1.06419e-05
0.0021875 0 1.10335e-06 -1.07466e-05 1.08031e-05
0.00219375 0 1.11596e-06 -1.09082e-05 1.09651e-05
0.0022 0 1.12869e-06 -1.10707e-05 1.11281e-05
0.00220625 0 1.14154e-06 -1.12341e-05 1.12919e-05
0.0022125 0 1.15451e-06 -1.13984e-05 1.14567e-05
0.00221875 0 1.16761e-06 -1.15635e-05 1.16223e-05
0.002225 0 1.18083e-06 -1.17295e-05 1.17888e-05
0.00223125 0 1.19417e-06 -1.18963e-05 1.19561e-05
0.0022375 0 1.20764e-06 -1.2064e-05 1.21243e-05
0.00224375 0 1.22122e-06 -1.22326e-05 1.22934e-05
0.00225 0 1.23493e-06 -1.24019e-05 1.24633e-05
0.00225625 0 1.24875e-06 -1.25722e-05 1.2634e-05
0.0022625 0 1.2627e-06 -1.27432e-05 1.28056e-05
0.00226875 0 1.27677e-06 -1.2915e-05 1.2978e-05
0.002275 0 1.29095e-06 -1.30876e-05 1.31511e-05
0.00228125 0 1.30526e-06 -1.3261e-05 1.33251e-05
0.0022875 0 1.31969e-06 -1.34352e-05 1.34999e-05
0.00229375 0 1.33424e-06 -1.36102e-05 1.36754e-05
0.0023 0 1.34891e-06 -1.37858e-05 1.38517e-05
0.00230625 0 1.3637e-06 -1.39623e-05 1.40287e-05
0.0023125 0 1.37862e-06 -1.41394e-05 1.42065e-05
0.00231875 0 1.39365e-06 -1.43173e-05 1.43849e-05
0.002325 0 1.40882e-06 -1.44958e-05 1.45641e-05
0.00233125 0 1.42411e-06 -1.46751e-05 1.4744e-05
0.0023375 0 1.43952e-06 -1.4855e-05 1.49246e-05
0.00234375 0 1.45507e-06 -1.50356e-05 1.51058e-05
0.00235 0 1.47074e-06 -1.52168e-05 1.52877e-05
0.00235625 0 1.48655e-06 -1.53987e-05 1.54703e-05
0.0023625 0 1.50249e-06 -1.55812e-05 1.56535e-05
0.00236875 0 1.51857e-06 -1.57643e-05 1.58373e-05
0.002375 0 1.53479e-06 -1.5948e-05 1.60217e-05
0.00238125 0 1.55115e-06 -1.61323e-05 1.62067e-05
0.0023875 0 1.56765e-06 -1.63172e-05 1.63923e-05
0.00239375 0 1.5843e-06 -1.65026e-05 1.65785e-05
0.0024 0 1.6011e-06 -1.66886e-05 1.67653e-05
0.00240625 0 1.61806e-06 -1.68752e-05 1.69526e-05
0.0024125 0 1.63516e-06 -1.70623e-05 1.71405e-05
0.00241875 0 1.65242e-06 -1.725e-05 1.73289e-05
0.002425 0 1.66985e-06 -1.74382e-05 1.75179e-05
0.00243125 0 1.68743e-06 -1.76269e-05 1.77074e-05
0.0024375 0 1.70518e-06 -1.78161e-05 1.78975e-05
0.00244375 0 1.7231e-06 -1.80058e-05 1.80881e-05
0.00245 0 1.74119e-06 -1.81961e-05 1.82792e-05
0.00245625 0 1.75946e-06 -1.83868e-05 1.84708e-05
0.0024625 0 1.77789e-06 -1.85781e-05 1.86629e-05
0.00246875 0 1.79651e-06 -1.87698e-05 1.88556e-05
0.002475 0 1.8153e-06 -1.89621e-05 1.90488e-05
0.00248125 0 1.83428e-06 -1.91548e-05 1.92424e-05
0.0024875 0 1.85344e-06 -1.93481e-05 1.94366e-05
0.00249375 0 1.87279e-06 -1.95418e-05 1.96313e-05
0.0025 0 1.89233e-06 -1.9736e-05 1.98265e-05
0.00250625 0 1.91205e-06 -1.99308e-05 2.00223e-05
0.0025125 0 1.93197e-06 -2.0126e-05 2.02185e-05
0.00251875 0 1.95208e-06 -2.03217e-05 2.04152e-05
0.002525 0 1.97238e-06 -2.05179e-05 2.06125e-05
0.00253125 0 1.99288e-06 -2.07146e-05 2.08102e-05
0.0025375 0 2.01358e-06 -2.09118e-05 2.10085e-05
0.00254375 0 2.03447e-06 -2.11095e-05 2.12073e-05
0.00255 0 2.05556e-06 -2.13076e-05 2.14066e-05
0.00255625 0 2.07686e-06 -2.15063e-05 2.16063e-05
0.0025625 0 2.09835e-06 -2.17055e-05 2.18066e-05
0.00256875 0 2.12004e-06 -2.19051e-05 2.20074e-05
0.002575 0 2.14194e-06 -2.21052e-05 2.22087e-05
0.00258125 0 2.16404e-06 -2.23058e-05 2.24105e-05
0.0025875 0 2.18635e-06 -2.25069e-05 2.26128e-05
0.00259375 0 2.20886e-06 -2.27085e-05 2.28156e-05
0.0026 0 2.23158e-06 -2.29105e-05 2.30189e-05
0.00260625 0 2.2545e-06 -2.3113e-05 2.32227e-05
0.0026125 0 2.27763e-06 -2.33159e-05 2.34269e-05
0.00261875 0 2.30097e-06 -2.35193e-05 2.36316e-05
0.002625 0 2.32451e-06 -2.37231e-05 2.38367e-05
0.00263125 0 2.34827e-06 -2.39274e-05 2.40423e-05
0.0026375 0 2.37223e-06 -2.41321e-05 2.42484e-05
0.00264375 0 2.39641e-06 -2.43372e-05 2.44549e-05
0.00265 0 2.4208e-06 -2.45427e-05 2.46618e-05
0.00265625 0 2.4454e-06 -2.47486e-05 2.48691e-05
0.0026625 0 2.47022e-06 -2.49549e-05 2.50769e-05
0.00266875 0 2.49525e-06 -2.51616e-05 2.5285e-05
0.002675 0 2.5205e-06 -2.53686e-05 2.54935e-05
0.00268125 0 2.54596e-06 -2.5576e-05 2.57024e-05
0.0026875 0 2.57165e-06 -2.57838e-05 2.59117e-05
0.00269375 0 2.59756e-06 -2.59919e-05 2.61214e-05
0.0027 0 2.62369e-06 -2.62003e-05 2.63313e-05
0.00270625 0 2.65004e-06 -2.6409e-05 2.65417e-05
0.0027125 0 2.67663e-06 -2.66181e-05 2.67523e-05
0.00271875 0 2.70344e-06 -2.68274e-05 2.69633e-05
0.002725 0 2.73048e-06 -2.7037e-05 2.71746e-05
0.00273125 0 2.75776e-06 -2.72469e-05 2.73861e-05
0.0027375 0 2.78527e-06 -2.74571e-05 2.7598e-05
0.00274375 0 2.81303e-06 -2.76675e-05 2.78101e-05
0.00275 0 2.84102e-06 -2.78782e-05 2.80226e-05
0.00275625 0 2.86926e-06 -2.80891e-05 2.82352e-05
0.0027625 0 2.89774e-06 -2.83002e-05 2.84482e-05
0.00276875 0 2.92647e-06 -2.85116e-05 2.86614e-05
0.002775 0 2.95546e-06 -2.87231e-05 2.88748e-05
0.00278125 0 2.9847e-06 -2.89349e-05 2.90885e-05
0.0027875 0 3.0142e-06 -2.91469e-05 2.93024e-05
0.00279375 0 3.04396e-06 -2.93591e-05 2.95165e-05
0.0028 0 3.07398e-06 -2.95715e-05 2.97309e-05
0.00280625 0 3.10427e-06 -2.97841e-05 2.99454e-05
0.0028125 0 3.13483e-06 -2.99968e-05 3.01602e-05
0.00281875 0 3.16566e-06 -3.02098e-05 3.03752e-05
0.002825 0 3.19677e-06 -3.04229e-05 3.05904e-05
0.00283125 0 3.22815e-06 -3.06362e-05 3.08058e-05
0.0028375 0 3.25982e-06 -3.08496e-05 3.10214e-05
0.00284375 0 3.29177e-06 -3.10633e-05 3.12372e-05
0.00285 0 3.32401e-06 -3.12771e-05 3.14532e-05
0.00285625 0 3.35653e-06 -3.1491e-05 3.16694e-05
0.0028625 0 3.38935e-06 -3.17051e-05 3.18858e-05
0.00286875 0 3.42246e-06 -3.19194e-05 3.21024e-05
0.002875 0 3.45587e-06 -3.21339e-05 3.23192e-05
0.00288125 0 3.48957e-06 -3.23485e-05 3.25361e-05
0.0028875 0 3.52358e-06 -3.25632e-05 3.27533e-05
0.00289375 0 3.55789e-06 -3.27781e-05 3.29707e-05
0.0029 0 3.5925e-06 -3.29932e-05 3.31882e-05
0.00290625 0 3.62743e-06 -3.32084e-05 3.3406e-05
0.0029125 0 3.66266e-06 -3.34238e-05 3.36239e-05
0.00291875 0 3.6982e-06 -3.36393e-05 3.3842e-05
0.002925 0 3.73406e-06 -3.3855e-05 3.40603e-05
0.00293125 0 3.77023e-06 -3.40709e-05 3.42788e-05
0.0029375 0 3.80672e-06 -3.42869e-05 3.44975e-05
0.00294375 0 3.84351e-06 -3.4503e-05 3.47164e-05
0.00295 0 3.88061e-06 -3.47193e-05 3.49355e-05
0.00295625 0 3.91803e-06 -3.49357e-05 3.51547e-05
0.0029625 0 3.95577e-06 -3.51523e-05 3.53741e-05
0.00296875 0 3.99382e-06 -3.5369e-05 3.55938e-05
0.002975 0 4.03219e-06 -3.55858e-05 3.58135e-05
0.00298125 0 4.07088e-06 -3.58028e-05 3.60335e-05
0.0029875 0 4.10989e-06 -3.60199e-05 3.62536e-05
0.00299375 0 4.14922e-06 -3.62372e-05 3.64739e-05
0.003 0 4.18888e-06 -3.64545e-05 3.66944e-05
0.00300625 0 4.22888e-06 -3.6672e-05 3.6915e-05
0.0030125 0 4.26921e-06 -3.68896e-05 3.71358e-05
0.00301875 0 4.30989e-06 -3.71073e-05 3.73567e-05
0.003025 0 4.35091e-06 -3.73251e-05 3.75778e-05
0.00303125 0 4.39227e-06 -3.7543e-05 3.7799e-05
0.0030375 0 4.43398e-06 -3.7761e-05 3.80204e-05
0.00304375 0 4.47605e-06 -3.79791e-05 3.82419e-05
0.00305 0 4.51846e-06 -3.81972e-05 3.84636e-05
0.00305625 0 4.56123e-06 -3.84155e-05 3.86853e-05
0.0030625 0 4.60435e-06 -3.86338e-05 3.89072e-05
0.00306875 0 4.64784e-06 -3.88522e-05 3.91292e-05
0.003075 0 4.69169e-06 -3.90706e-05 3.93513e-05
0.00308125 0 4.7359e-06 -3.92891e-05 3.95735e-05
0.0030875 0 4.78049e-06 -3.95076e-05 3.97958e-05
0.00309375 0 4.82544e-06 -3.97262e-05 4.00182e-05
0.0031 0 4.87077e-06 -3.99448e-05 4.02407e-05
0.00310625 0 4.91648e-06 -4.01634e-05 4.04632e-05
0.0031125 0 4.96257e-06 -4.03821e-05 4.06859e-05
0.00311875 0 5.00904e-06 -4.06008e-05 4.09086e-05
0.003125 0 5.0559e-06 -4.08195e-05 4.11314e-05
0.00313125 0 5.10316e-06 -4.10382e-05 4.13543e-05
0.0031375 0 5.1508e-06 -4.1257e-05 4.15773e-05
0.00314375 0 5.19884e-06 -4.14757e-05 4.18003e-05
0.00315 0 5.24728e-06 -4.16945e-05 4.20234e-05
0.00315625 0 5.29611e-06 -4.19132e-05 4.22465e-05
0.0031625 0 5.34534e-06 -4.21319e-05 4.24697e-05
0.00316875 0 5.39496e-06 -4.23507e-05 4.26929e-05
0.003175 0 5.445e-06 -4.25694e-05 4.29162e-05
0.00318125 0 5.49545e-06 -4.27881e-05 4.31396e-05
0.0031875 0 5.54632e-06 -4.30068e-05 4.3363e-05
0.00319375 0 5.59761e-06 -4.32255e-05 4.35865e-05
0.0032 0 5.64932e-06 -4.34442e-05 4.381e-05
0.00320625 0 5.70146e-06 -4.36629e-05 4.40336e-05
0.0032125 0 5.75403e-06 -4.38815e-05 4.42572e-05
0.00321875 0 5.80703e-06 -4.41002e-05 4.44808e-05
0.003225 0 5.86048e-06 -4.43188e-05 4.47046e-05
0.00323125 0 5.91436e-06 -4.45374e-05 4.49283e-05
0.0032375 0 5.96868e-06 -4.47559e-05 4.51522e-05
0.00324375 0 6.02345e-06 -4.49745e-05 4.5376e-05
0.00325 0 6.07868e-06 -4.5193e-05 4.55999e-05
0.00325625 0 6.13435e-06 -4.54115e-05 4.58239e-05
0.0032625 0 6.19048e-06 -4.56299e-05 4.60479e-05
0.00326875 0 6.24708e-06 -4.58484e-05 4.6272e-05
0.003275 0 6.30413e-06 -4.60668e-05 4.64961e-05
0.00328125 0 6.36166e-06 -4.62851e-05 4.67203e-05
0.0032875 0 6.41965e-06 -4.65035e-05 4.69445e-05
0.00329375 0 6.47811e-06 -4.67218e-05 4.71688e-05
0.0033 0 6.53705e-06 -4.69401e-05 4.73931e-05
0.00330625 0 6.59647e-06 -4.71583e-05 4.76174e-05
0.0033125 0 6.65637e-06 -4.73765e-05 4.78418e-05
0.00331875 0 6.71676e-06 -4.75947e-05 4.80663e-05
0.003325 0 6.77763e-06 -4.78128e-05 4.82908e-05
0.00333125 0 6.83899e-06 -4.80309e-05 4.85154e-05
0.0033375 0 6.90084e-06 -4.82489e-05 4.87399e-05
0.00334375 0 6.96319e-06 -4.84669e-05 4.89646e-05
0.00335 0 7.02603e-06 -4.86849e-05 4.91893e-05
0.00335625 0 7.08936e-06 -4.89028e-05 4.9414e-05
0.0033625 0 7.15318e-06 -4.91206e-05 4.96387e-05
0.00336875 0 7.21748e-06 -4.93384e-05 4.98635e-05
0.003375 0 7.28228e-06 -4.95561e-05 5.00883e-05
0.00338125 0 7.34757e-06 -4.97738e-05 5.03132e-05
0.0033875 0 7.41336e-06 -4.99914e-05 5.05381e-05
0.00339375 0 7.47965e-06 -5.02089e-05 5.0763e-05
0.0034 0 7.54644e-06 -5.04263e-05 5.09879e-05
0.00340625 0 7.61374e-06 -5.06437e-05 5.12128e-05
0.0034125 0 7.68155e-06 -5.0861e-05 5.14378e-05
0.00341875 0 7.74988e-06 -5.10782e-05 5.16627e-05
0.003425 0 7.81874e-06 -5.12953e-05 5.18877e-05
0.00343125 0 7.88812e-06 -5.15122e-05 5.21127e-05
0.0034375 0 7.95803e-06 -5.17291e-05 5.23377e-05
0.00344375 0 8.02848e-06 -5.19459e-05 5.25626e-05
0.00345 0 8.09947e-06 -5.21625e-05 5.27876e-05
0.00345625 0 8.17099e-06 -5.23791e-05 5.30125e-05
0.0034625 0 8.24305e-06 -5.25954e-05 5.32375e-05
0.00346875 0 8.31567e-06 -5.28117e-05 5.34624e-05
0.003475 0 8.38883e-06 -5.30278e-05 5.36872e-05
0.00348125 0 8.46255e-06 -5.32438e-05 5.39121e-05
0.0034875 0 8.53682e-06 -5.34596e-05 5.41369e-05
0.00349375 0 8.61165e-06 -5.36752e-05 5.43616e-05
0.0035 0 8.68705e-06 -5.38907e-05 5.45864e-05
0.00350625 0 8.76301e-06 -5.4106e-05 5.4811e-05
0.0035125 0 8.83955e-06 -5.43211e-05 5.50356e-05
0.00351875 0 8.91666e-06 -5.45361e-05 5.52602e-05
0.003525 0 8.99435e-06 -5.47509e-05 5.54847e-05
0.00353125 0 9.07261e-06 -5.49655e-05 5.57092e-05
0.0035375 0 9.15146e-06 -5.51799e-05 5.59336e-05
0.00354375 0 9.2309e-06 -5.53941e-05 5.61579e-05
0.00355 0 9.31092e-06 -5.56081e-05 5.63822e-05
0.00355625 0 9.39154e-06 -5.5822e-05 5.66065e-05
0.0035625 0 9.47274e-06 -5.60356e-05 5.68306e-05
0.00356875 0 9.55454e-06 -5.62491e-05 5.70548e-05
0.003575 0 9.63694e-06 -5.64623e-05 5.72788e-05
0.00358125 0 9.71992e-06 -5.66754e-05 5.75028e-05
0.0035875 0 9.80348e-06 -5.68883e-05 5.77268e-05
0.00359375 0 9.88763e-06 -5.71009e-05 5.79507e-05
0.0036 0 9.97237e-06 -5.73134e-05 5.81745e-05
0.00360625 0 1.00577e-05 -5.75257e-05 5.83983e-05
0.0036125 0 1.01436e-05 -5.77378e-05 5.8622e-05
0.00361875 0 1.02301e-05 -5.79496e-05 5.88457e-05
0.003625 0 1.03172e-05 -5.81613e-05 5.90693e-05
0.00363125 0 1.04049e-05 -5.83728e-05 5.92929e-05
0.0036375 0 1.04932e-05 -5.8584e-05 5.95164e-05
0.00364375 0 1.05822e-05 -5.87951e-05 5.97398e-05
0.00365 0 1.06717e-05 -5.90059e-05 5.99632e-05
0.00365625 0 1.07619e-05 -5.92165e-05 6.01865e-05
0.0036625 0 1.08526e-05 -5.94269e-05 6.04098e-05
0.00366875 0 1.0944e-05 -5.96371e-05 6.0633e-05
0.003675 0 1.1036e-05 -5.98471e-05 6.08561e-05
0.00368125 0 1.11287e-05 -6.00568e-05 6.10792e-05
0.0036875 0 1.12219e-05 -6.02663e-05 6.13022e-05
0.00369375 0 1.13158e-05 -6.04755e-05 6.15251e-05
0.0037 0 1.14103e-05 -6.06846e-05 6.17479e-05
0.00370625 0 1.15054e-05 -6.08933e-05 6.19707e-05
0.0037125 0 1.16012e-05 -6.11018e-05 6.21934e-05
0.00371875 0 1.16975e-05 -6.13101e-05 6.2416e-05
0.003725 0 1.17945e-05 -6.15181e-05 6.26386e-05
0.00373125 0 1.18922e-05 -6.17259e-05 6.2861e-05
0.0037375 0 1.19904e-05 -6.19334e-05 6.30834e-05
0.00374375 0 1.20893e-05 -6.21406e-05 6.33056e-05
0.00375 0 1.21888e-05 -6.23476e-05 6.35278e-05
0.00375625 0 1.2289e-05 -6.25543e-05 6.37499e-05
0.0037625 0 1.23898e-05 -6.27607e-05 6.39719e-05
0.00376875 0 1.24912e-05 -6.29668e-05 6.41939e-05
0.003775 0 1.25932e-05 -6.31727e-05 6.44157e-05
0.00378125 0 1.26959e-05 -6.33783e-05 6.46374e-05
0.0037875 0 1.27992e-05 -6.35836e-05 6.48591e-05
0.00379375 0 1.29031e-05 -6.37887e-05 6.50806e-05
0.0038 0 1.30076e-05 -6.39934e-05 6.53021e-05
0.00380625 0 1.31128e-05 -6.41979e-05 6.55234e-05
0.0038125 0 1.32185e-05 -6.44021e-05 6.57447e-05
0.00381875 0 1.33249e-05 -6.4606e-05 6.59658e-05
0.003825 0 1.3432e-05 -6.48096e-05 6.61869e-05
0.00383125 0 1.35396e-05 -6.5013e-05 6.64079e-05
0.0038375 0 1.36478e-05 -6.5216e-05 6.66287e-05
0.00384375 0 1.37567e-05 -6.54187e-05 6.68495e-05