5.04792 	5.06754 	0.5 	 -9.60717e+07 2.18104e+08
5.24847 	5.26765 	0.5 	 -8.97252e+07 2.0571e+08
5.4542 	5.47293 	0.5 	 -8.41007e+07 1.92995e+08
5.65993 	5.67821 	0.5 	 -7.88209e+07 1.81606e+08
5.86566 	5.88349 	0.5 	 -7.3876e+07 1.71407e+08
6.07139 	6.08877 	0.5 	 -6.9223e+07 1.62225e+08
6.27712 	6.29405 	0.5 	 -6.48615e+07 1.53911e+08
6.48285 	6.49933 	0.5 	 -6.07484e+07 1.46369e+08
6.68858 	6.70461 	0.5 	 -5.68897e+07 1.3949e+08
6.89431 	6.90989 	0.5 	 -5.32438e+07 1.33213e+08
7.10004 	7.11516 	0.5 	 -4.98193e+07 1.27453e+08
7.30577 	7.32044 	0.5 	 -4.65784e+07 1.22167e+08
7.5115 	7.52572 	0.5 	 -4.35297e+07 1.17292e+08
7.71723 	7.731 	0.5 	 -4.06412e+07 1.12795e+08
7.92296 	7.93628 	0.5 	 -3.7919e+07 1.0863e+08
8.12869 	8.14156 	0.5 	 -3.53373e+07 1.0477e+08
8.33442 	8.34684 	0.5 	 -3.28997e+07 1.01181e+08
8.54015 	8.55212 	0.5 	 -3.05859e+07 9.78417e+07
8.74588 	8.7574 	0.5 	 -2.83971e+07 9.47255e+07
8.95161 	8.96268 	0.5 	 -2.63176e+07 9.18163e+07
9.15734 	9.16795 	0.5 	 -2.43469e+07 8.90928e+07
9.36307 	9.37323 	0.5 	 -2.24731e+07 8.65418e+07
9.5688 	9.57851 	0.5 	 -2.06941e+07 8.4147e+07
9.77453 	9.78379 	0.5 	 -1.90011e+07 8.18973e+07
9.98026 	9.98907 	0.5 	 -1.73912e+07 7.978e+07
10.186 	10.1943 	0.5 	 -1.58574e+07 7.77857e+07
10.3917 	10.3996 	0.5 	 -1.43967e+07 7.59044e+07
10.5974 	10.6049 	0.5 	 -1.30037e+07 7.4128e+07
10.8032 	10.8102 	0.5 	 -1.16754e+07 7.24485e+07
11.0089 	11.0155 	0.5 	 -1.04075e+07 7.0859e+07
11.2146 	11.2207 	0.5 	 -9.19714e+06 6.93531e+07
11.4204 	11.426 	0.5 	 -8.04036e+06 6.79252e+07
11.6261 	11.6313 	0.5 	 -6.93468e+06 6.65698e+07
11.8318 	11.8366 	0.5 	 -5.87662e+06 6.52824e+07
12.0376 	12.0419 	0.5 	 -4.86434e+06 6.40581e+07
12.2433 	12.2471 	0.5 	 -3.89457e+06 6.28932e+07
12.449 	12.4524 	0.5 	 -2.9661e+06 6.17834e+07
12.6547 	12.6577 	0.5 	 -2.07556e+06 6.07253e+07
12.8605 	12.863 	0.5 	 -1.22219e+06 5.97177e+07
13.0662 	13.0683 	0.5 	 -403271 5.88542e+07
