# Force       
# CofR        : (5.000000e-01 1.000000e-01 0.000000e+00)
#
# Time        	(total_x total_y total_z)	(pressure_x pressure_y pressure_z)	(viscous_x viscous_y viscous_z)
2.5e-05       	(6.146130e-03 6.146130e-03 2.064180e-06)	(6.146469e-03 6.146469e-03 -3.508177e-06)	(-3.387916e-07 -3.387943e-07 5.572356e-06)
5e-05         	(9.560943e-03 9.560974e-03 3.317322e-06)	(9.561455e-03 9.561486e-03 -7.831683e-06)	(-5.112417e-07 -5.112609e-07 1.114901e-05)
7.5e-05       	(1.158237e-02 1.158238e-02 3.761824e-06)	(1.158303e-02 1.158305e-02 -1.314015e-05)	(-6.633582e-07 -6.633902e-07 1.690198e-05)
0.0001        	(1.258204e-02 1.258192e-02 3.119018e-06)	(1.258284e-02 1.258272e-02 -1.967456e-05)	(-8.010154e-07 -8.010014e-07 2.279357e-05)
0.000125      	(1.282582e-02 1.282583e-02 1.133259e-06)	(1.282676e-02 1.282676e-02 -2.755534e-05)	(-9.323491e-07 -9.323336e-07 2.868860e-05)
0.00015       	(1.267800e-02 1.267802e-02 -2.348697e-06)	(1.267906e-02 1.267908e-02 -3.680322e-05)	(-1.057815e-06 -1.057806e-06 3.445452e-05)
0.000175      	(1.249366e-02 1.249381e-02 -7.205831e-06)	(1.249484e-02 1.249498e-02 -4.723782e-05)	(-1.174379e-06 -1.174436e-06 4.003199e-05)
0.0002        	(1.252074e-02 1.252071e-02 -1.302900e-05)	(1.252202e-02 1.252199e-02 -5.848136e-05)	(-1.279672e-06 -1.279727e-06 4.545236e-05)
0.000225      	(1.280533e-02 1.280528e-02 -1.933032e-05)	(1.280670e-02 1.280666e-02 -7.014041e-05)	(-1.373191e-06 -1.373231e-06 5.081009e-05)
0.00025       	(1.329756e-02 1.329752e-02 -2.575319e-05)	(1.329901e-02 1.329898e-02 -8.196829e-05)	(-1.455720e-06 -1.455751e-06 5.621510e-05)
0.000275      	(1.392181e-02 1.392181e-02 -3.220139e-05)	(1.392333e-02 1.392334e-02 -9.395156e-05)	(-1.528553e-06 -1.528585e-06 6.175016e-05)
0.0003        	(1.456766e-02 1.456764e-02 -3.885900e-05)	(1.456925e-02 1.456924e-02 -1.063075e-04)	(-1.592683e-06 -1.592708e-06 6.744854e-05)
0.000325      	(1.519350e-02 1.519351e-02 -4.601305e-05)	(1.519515e-02 1.519516e-02 -1.193077e-04)	(-1.648243e-06 -1.648268e-06 7.329464e-05)
0.00035       	(1.579880e-02 1.579880e-02 -5.392677e-05)	(1.580049e-02 1.580050e-02 -1.331676e-04)	(-1.695006e-06 -1.695032e-06 7.924085e-05)
0.000375      	(1.638545e-02 1.638546e-02 -6.273991e-05)	(1.638719e-02 1.638719e-02 -1.479702e-04)	(-1.732532e-06 -1.732560e-06 8.523032e-05)
0.0004        	(1.698352e-02 1.698354e-02 -7.239832e-05)	(1.698528e-02 1.698530e-02 -1.636146e-04)	(-1.760462e-06 -1.760500e-06 9.121632e-05)
0.000425      	(1.761817e-02 1.761817e-02 -8.270308e-05)	(1.761995e-02 1.761995e-02 -1.798762e-04)	(-1.778848e-06 -1.778893e-06 9.717311e-05)
0.00045       	(1.827822e-02 1.827819e-02 -9.340161e-05)	(1.828001e-02 1.827998e-02 -1.964991e-04)	(-1.788233e-06 -1.788269e-06 1.030975e-04)
0.000475      	(1.897201e-02 1.897200e-02 -1.041844e-04)	(1.897380e-02 1.897379e-02 -2.131877e-04)	(-1.789432e-06 -1.789466e-06 1.090033e-04)
0.0005        	(1.968023e-02 1.968023e-02 -1.148146e-04)	(1.968202e-02 1.968201e-02 -2.297279e-04)	(-1.783586e-06 -1.783619e-06 1.149133e-04)
0.000525      	(2.038352e-02 2.038335e-02 -1.251162e-04)	(2.038529e-02 2.038512e-02 -2.459667e-04)	(-1.771849e-06 -1.771804e-06 1.208504e-04)
0.00055       	(2.108361e-02 2.108266e-02 -1.349570e-04)	(2.108537e-02 2.108442e-02 -2.617898e-04)	(-1.755371e-06 -1.754878e-06 1.268328e-04)
0.000575      	(2.177561e-02 2.177587e-02 -1.442952e-04)	(2.177735e-02 2.177761e-02 -2.771659e-04)	(-1.734621e-06 -1.734160e-06 1.328708e-04)
0.0006        	(2.245023e-02 2.245059e-02 -1.531639e-04)	(2.245194e-02 2.245230e-02 -2.921314e-04)	(-1.710471e-06 -1.710128e-06 1.389675e-04)
0.000625      	(2.312779e-02 2.312944e-02 -1.615726e-04)	(2.312948e-02 2.313112e-02 -3.066932e-04)	(-1.683148e-06 -1.683525e-06 1.451206e-04)
0.00065       	(2.381866e-02 2.381856e-02 -1.695913e-04)	(2.382031e-02 2.382021e-02 -3.209163e-04)	(-1.653688e-06 -1.654138e-06 1.513250e-04)
0.000675      	(2.451162e-02 2.451098e-02 -1.773249e-04)	(2.451325e-02 2.451260e-02 -3.348993e-04)	(-1.622252e-06 -1.622498e-06 1.575744e-04)
0.0007        	(2.522119e-02 2.522117e-02 -1.847781e-04)	(2.522278e-02 2.522276e-02 -3.486413e-04)	(-1.588894e-06 -1.589178e-06 1.638632e-04)
0.000725      	(2.595499e-02 2.595471e-02 -1.920119e-04)	(2.595655e-02 2.595626e-02 -3.621986e-04)	(-1.554048e-06 -1.554221e-06 1.701867e-04)
0.00075       	(2.669345e-02 2.669316e-02 -1.990760e-04)	(2.669497e-02 2.669468e-02 -3.756172e-04)	(-1.518006e-06 -1.517999e-06 1.765412e-04)
0.000775      	(2.744955e-02 2.744955e-02 -2.059154e-04)	(2.745103e-02 2.745103e-02 -3.888394e-04)	(-1.480963e-06 -1.480882e-06 1.829240e-04)
0.0008        	(2.822264e-02 2.822275e-02 -2.125184e-04)	(2.822408e-02 2.822419e-02 -4.018512e-04)	(-1.443136e-06 -1.443049e-06 1.893328e-04)
0.000825      	(2.898875e-02 2.898856e-02 -2.189145e-04)	(2.899016e-02 2.898997e-02 -4.146801e-04)	(-1.404894e-06 -1.404710e-06 1.957656e-04)
0.00085       	(2.977235e-02 2.977246e-02 -2.249775e-04)	(2.977372e-02 2.977383e-02 -4.271982e-04)	(-1.366337e-06 -1.366206e-06 2.022207e-04)
0.000875      	(3.057376e-02 3.057376e-02 -2.307006e-04)	(3.057509e-02 3.057509e-02 -4.393971e-04)	(-1.327771e-06 -1.327676e-06 2.086964e-04)
0.0009        	(3.136485e-02 3.136503e-02 -2.361665e-04)	(3.136614e-02 3.136632e-02 -4.513577e-04)	(-1.289324e-06 -1.289350e-06 2.151912e-04)
0.000925      	(3.217719e-02 3.217716e-02 -2.412290e-04)	(3.217844e-02 3.217841e-02 -4.629327e-04)	(-1.251210e-06 -1.251258e-06 2.217037e-04)
0.00095       	(3.300280e-02 3.300278e-02 -2.459703e-04)	(3.300401e-02 3.300400e-02 -4.742026e-04)	(-1.213502e-06 -1.213558e-06 2.282323e-04)
0.000975      	(3.382047e-02 3.382053e-02 -2.504648e-04)	(3.382165e-02 3.382171e-02 -4.852405e-04)	(-1.176285e-06 -1.176375e-06 2.347757e-04)
0.001         	(3.465467e-02 3.465532e-02 -2.546395e-04)	(3.465581e-02 3.465646e-02 -4.959718e-04)	(-1.139484e-06 -1.139866e-06 2.413323e-04)
0.001025      	(3.550640e-02 3.550615e-02 -2.585007e-04)	(3.550751e-02 3.550725e-02 -5.064013e-04)	(-1.103489e-06 -1.103797e-06 2.479006e-04)
0.00105       	(3.635321e-02 3.635299e-02 -2.621540e-04)	(3.635428e-02 3.635406e-02 -5.166327e-04)	(-1.068187e-06 -1.068417e-06 2.544787e-04)
0.001075      	(3.721068e-02 3.720941e-02 -2.655249e-04)	(3.721171e-02 3.721044e-02 -5.265899e-04)	(-1.033703e-06 -1.033365e-06 2.610650e-04)
0.0011        	(3.809128e-02 3.809153e-02 -2.685752e-04)	(3.809228e-02 3.809253e-02 -5.362332e-04)	(-9.998119e-07 -9.994895e-07 2.676580e-04)
0.001125      	(3.895475e-02 3.895505e-02 -2.714476e-04)	(3.895572e-02 3.895601e-02 -5.457037e-04)	(-9.667334e-07 -9.664929e-07 2.742561e-04)
0.00115       	(3.983948e-02 3.983994e-02 -2.739652e-04)	(3.984041e-02 3.984088e-02 -5.548235e-04)	(-9.344165e-07 -9.343430e-07 2.808583e-04)
0.001175      	(4.073455e-02 4.073477e-02 -2.761434e-04)	(4.073545e-02 4.073567e-02 -5.636070e-04)	(-9.030480e-07 -9.030953e-07 2.874635e-04)
0.0012        	(4.161782e-02 4.161792e-02 -2.780910e-04)	(4.161870e-02 4.161879e-02 -5.721622e-04)	(-8.726950e-07 -8.728357e-07 2.940712e-04)
0.001225      	(4.252100e-02 4.252077e-02 -2.796373e-04)	(4.252184e-02 4.252161e-02 -5.803182e-04)	(-8.434199e-07 -8.435178e-07 3.006809e-04)
0.00125       	(4.343890e-02 4.343888e-02 -2.807994e-04)	(4.343971e-02 4.343969e-02 -5.880915e-04)	(-8.152568e-07 -8.153596e-07 3.072921e-04)
0.001275      	(4.433422e-02 4.433401e-02 -2.817600e-04)	(4.433501e-02 4.433480e-02 -5.956646e-04)	(-7.883830e-07 -7.883917e-07 3.139046e-04)
0.0013        	(4.524892e-02 4.524878e-02 -2.823017e-04)	(4.524968e-02 4.524954e-02 -6.028197e-04)	(-7.627605e-07 -7.626596e-07 3.205180e-04)
0.001325      	(4.617139e-02 4.617144e-02 -2.824930e-04)	(4.617212e-02 4.617218e-02 -6.096249e-04)	(-7.384271e-07 -7.382915e-07 3.271320e-04)
0.00135       	(4.708049e-02 4.708046e-02 -2.824616e-04)	(4.708121e-02 4.708118e-02 -6.162077e-04)	(-7.155316e-07 -7.153374e-07 3.337461e-04)
0.001375      	(4.800881e-02 4.800892e-02 -2.820184e-04)	(4.800950e-02 4.800962e-02 -6.223784e-04)	(-6.939927e-07 -6.938194e-07 3.403599e-04)
0.0014        	(4.895664e-02 4.895679e-02 -2.811801e-04)	(4.895731e-02 4.895746e-02 -6.281530e-04)	(-6.739568e-07 -6.738562e-07 3.469729e-04)
0.001425      	(4.987459e-02 4.987495e-02 -2.802657e-04)	(4.987524e-02 4.987560e-02 -6.338500e-04)	(-6.554233e-07 -6.555006e-07 3.535843e-04)
0.00145       	(5.080238e-02 5.080228e-02 -2.789736e-04)	(5.080302e-02 5.080291e-02 -6.391673e-04)	(-6.384846e-07 -6.385557e-07 3.601937e-04)
0.001475      	(5.176148e-02 5.176136e-02 -2.772913e-04)	(5.176210e-02 5.176199e-02 -6.440916e-04)	(-6.230325e-07 -6.230811e-07 3.668003e-04)
0.0015        	(5.269125e-02 5.269058e-02 -2.755736e-04)	(5.269186e-02 5.269119e-02 -6.489772e-04)	(-6.092889e-07 -6.090438e-07 3.734035e-04)
0.001525      	(5.363054e-02 5.363054e-02 -2.734486e-04)	(5.363114e-02 5.363114e-02 -6.534513e-04)	(-5.969130e-07 -5.966149e-07 3.800027e-04)
0.00155       	(5.459228e-02 5.459257e-02 -2.710139e-04)	(5.459286e-02 5.459316e-02 -6.576111e-04)	(-5.859202e-07 -5.857051e-07 3.865972e-04)
0.001575      	(5.553069e-02 5.553047e-02 -2.685212e-04)	(5.553127e-02 5.553104e-02 -6.617076e-04)	(-5.765073e-07 -5.761706e-07 3.931864e-04)
0.0016        	(5.647665e-02 5.647719e-02 -2.657215e-04)	(5.647722e-02 5.647775e-02 -6.654911e-04)	(-5.683063e-07 -5.681868e-07 3.997696e-04)
0.001625      	(5.745528e-02 5.745545e-02 -2.625643e-04)	(5.745585e-02 5.745601e-02 -6.689105e-04)	(-5.615002e-07 -5.614998e-07 4.063462e-04)
0.00165       	(5.840492e-02 5.840489e-02 -2.594159e-04)	(5.840547e-02 5.840544e-02 -6.723314e-04)	(-5.561131e-07 -5.561532e-07 4.129155e-04)
0.001675      	(5.936831e-02 5.936824e-02 -2.559237e-04)	(5.936887e-02 5.936879e-02 -6.754006e-04)	(-5.519650e-07 -5.520183e-07 4.194769e-04)
0.0017        	(6.034006e-02 6.033995e-02 -2.522226e-04)	(6.034061e-02 6.034049e-02 -6.782524e-04)	(-5.490202e-07 -5.490533e-07 4.260298e-04)
0.001725      	(6.129147e-02 6.129136e-02 -2.484914e-04)	(6.129202e-02 6.129190e-02 -6.810650e-04)	(-5.472610e-07 -5.472493e-07 4.325736e-04)
0.00175       	(6.224808e-02 6.224827e-02 -2.445228e-04)	(6.224863e-02 6.224882e-02 -6.836306e-04)	(-5.465062e-07 -5.465654e-07 4.391078e-04)
0.001775      	(6.324237e-02 6.324221e-02 -2.401942e-04)	(6.324292e-02 6.324276e-02 -6.858260e-04)	(-5.468302e-07 -5.468247e-07 4.456318e-04)
0.0018        	(6.419092e-02 6.419209e-02 -2.359716e-04)	(6.419147e-02 6.419263e-02 -6.881166e-04)	(-5.479303e-07 -5.484393e-07 4.521450e-04)
0.001825      	(6.516052e-02 6.515960e-02 -2.315140e-04)	(6.516107e-02 6.516015e-02 -6.901609e-04)	(-5.503203e-07 -5.505272e-07 4.586470e-04)
0.00185       	(6.615009e-02 6.615010e-02 -2.267431e-04)	(6.615064e-02 6.615066e-02 -6.918805e-04)	(-5.534147e-07 -5.536396e-07 4.651374e-04)
0.001875      	(6.711310e-02 6.711218e-02 -2.220993e-04)	(6.711365e-02 6.711274e-02 -6.937151e-04)	(-5.575687e-07 -5.574291e-07 4.716158e-04)
0.0019        	(6.809610e-02 6.809630e-02 -2.170137e-04)	(6.809667e-02 6.809686e-02 -6.950954e-04)	(-5.622790e-07 -5.621659e-07 4.780817e-04)
0.001925      	(6.907940e-02 6.907963e-02 -2.118524e-04)	(6.907997e-02 6.908020e-02 -6.963873e-04)	(-5.677054e-07 -5.676651e-07 4.845349e-04)
0.00195       	(7.005547e-02 7.005624e-02 -2.067175e-04)	(7.005605e-02 7.005682e-02 -6.976926e-04)	(-5.737178e-07 -5.740046e-07 4.909751e-04)
0.001975      	(7.102266e-02 7.102273e-02 -2.013522e-04)	(7.102324e-02 7.102331e-02 -6.987542e-04)	(-5.804691e-07 -5.808369e-07 4.974020e-04)
0.002         	(7.200508e-02 7.200514e-02 -1.958204e-04)	(7.200567e-02 7.200573e-02 -6.996358e-04)	(-5.877757e-07 -5.882251e-07 5.038154e-04)
0.002025      	(7.298359e-02 7.298321e-02 -1.904091e-04)	(7.298419e-02 7.298381e-02 -7.006242e-04)	(-5.957617e-07 -5.961013e-07 5.102151e-04)
0.00205       	(7.394318e-02 7.394288e-02 -1.846527e-04)	(7.394378e-02 7.394348e-02 -7.012534e-04)	(-6.042287e-07 -6.044482e-07 5.166007e-04)
0.002075      	(7.493675e-02 7.493721e-02 -1.786906e-04)	(7.493736e-02 7.493782e-02 -7.016627e-04)	(-6.129447e-07 -6.133354e-07 5.229721e-04)
0.0021        	(7.590616e-02 7.590970e-02 -1.729004e-04)	(7.590679e-02 7.591032e-02 -7.022294e-04)	(-6.214349e-07 -6.233859e-07 5.293291e-04)
0.002125      	(7.687350e-02 7.687270e-02 -1.669463e-04)	(7.687413e-02 7.687334e-02 -7.026177e-04)	(-6.310727e-07 -6.329212e-07 5.356714e-04)
0.00215       	(7.788602e-02 7.788420e-02 -1.605879e-04)	(7.788666e-02 7.788484e-02 -7.025868e-04)	(-6.413000e-07 -6.424628e-07 5.419990e-04)
0.002175      	(7.886123e-02 7.885958e-02 -1.545719e-04)	(7.886189e-02 7.886023e-02 -7.028834e-04)	(-6.519544e-07 -6.524115e-07 5.483115e-04)
0.0022        	(7.981675e-02 7.981705e-02 -1.483564e-04)	(7.981741e-02 7.981772e-02 -7.029651e-04)	(-6.624437e-07 -6.629277e-07 5.546086e-04)
0.002225      	(8.080781e-02 8.080775e-02 -1.418946e-04)	(8.080848e-02 8.080843e-02 -7.027848e-04)	(-6.731278e-07 -6.734763e-07 5.608902e-04)
0.00225       	(8.177220e-02 8.177134e-02 -1.356142e-04)	(8.177288e-02 8.177202e-02 -7.027701e-04)	(-6.842399e-07 -6.840695e-07 5.671559e-04)
0.002275      	(8.274842e-02 8.274893e-02 -1.290851e-04)	(8.274911e-02 8.274962e-02 -7.024905e-04)	(-6.951208e-07 -6.950586e-07 5.734054e-04)
0.0023        	(8.373853e-02 8.373884e-02 -1.224264e-04)	(8.373924e-02 8.373955e-02 -7.020648e-04)	(-7.060710e-07 -7.061521e-07 5.796384e-04)
0.002325      	(8.470493e-02 8.470483e-02 -1.160090e-04)	(8.470564e-02 8.470554e-02 -7.018637e-04)	(-7.172169e-07 -7.172943e-07 5.858547e-04)
0.00235       	(8.567330e-02 8.567421e-02 -1.093201e-04)	(8.567403e-02 8.567494e-02 -7.013737e-04)	(-7.281615e-07 -7.286861e-07 5.920536e-04)
0.002375      	(8.667287e-02 8.667249e-02 -1.023710e-04)	(8.667361e-02 8.667323e-02 -7.006057e-04)	(-7.393389e-07 -7.397838e-07 5.982346e-04)
0.0024        	(8.765069e-02 8.765016e-02 -9.581653e-05)	(8.765145e-02 8.765091e-02 -7.002138e-04)	(-7.507021e-07 -7.508960e-07 6.043973e-04)
0.002425      	(8.858998e-02 8.859129e-02 -8.922656e-05)	(8.859074e-02 8.859205e-02 -6.997675e-04)	(-7.616263e-07 -7.623282e-07 6.105409e-04)
0.00245       	(8.958571e-02 8.958577e-02 -8.225907e-05)	(8.958648e-02 8.958654e-02 -6.989239e-04)	(-7.726230e-07 -7.733512e-07 6.166648e-04)
0.002475      	(9.054032e-02 9.054053e-02 -7.557479e-05)	(9.054110e-02 9.054131e-02 -6.983431e-04)	(-7.836339e-07 -7.843948e-07 6.227683e-04)
0.0025        	(9.151199e-02 9.151132e-02 -6.880372e-05)	(9.151278e-02 9.151211e-02 -6.976541e-04)	(-7.946544e-07 -7.951113e-07 6.288504e-04)
0.002525      	(9.249022e-02 9.248985e-02 -6.183934e-05)	(9.249102e-02 9.249066e-02 -6.967493e-04)	(-8.055052e-07 -8.057431e-07 6.349100e-04)
0.00255       	(9.345161e-02 9.345160e-02 -5.504965e-05)	(9.345242e-02 9.345242e-02 -6.959954e-04)	(-8.161459e-07 -8.163162e-07 6.409458e-04)
0.002575      	(9.441175e-02 9.441181e-02 -4.825127e-05)	(9.441258e-02 9.441264e-02 -6.952077e-04)	(-8.265835e-07 -8.267295e-07 6.469564e-04)
0.0026        	(9.540771e-02 9.540737e-02 -4.115538e-05)	(9.540855e-02 9.540820e-02 -6.940957e-04)	(-8.368916e-07 -8.368269e-07 6.529404e-04)
0.002625      	(9.636532e-02 9.636551e-02 -3.450738e-05)	(9.636617e-02 9.636635e-02 -6.934034e-04)	(-8.469750e-07 -8.469622e-07 6.588960e-04)
0.00265       	(9.730771e-02 9.730850e-02 -2.767245e-05)	(9.730857e-02 9.730936e-02 -6.924939e-04)	(-8.566693e-07 -8.570063e-07 6.648214e-04)
0.002675      	(9.828927e-02 9.828920e-02 -2.076083e-05)	(9.829014e-02 9.829007e-02 -6.914754e-04)	(-8.662385e-07 -8.666076e-07 6.707146e-04)
0.0027        	(9.924302e-02 9.924270e-02 -1.404134e-05)	(9.924390e-02 9.924358e-02 -6.906144e-04)	(-8.756889e-07 -8.759682e-07 6.765730e-04)
0.002725      	(1.002002e-01 1.002003e-01 -7.225718e-06)	(1.002011e-01 1.002012e-01 -6.896199e-04)	(-8.847828e-07 -8.851120e-07 6.823942e-04)
0.00275       	(1.011784e-01 1.011780e-01 -3.286280e-07)	(1.011793e-01 1.011789e-01 -6.885038e-04)	(-8.936791e-07 -8.938201e-07 6.881752e-04)
0.002775      	(1.021122e-01 1.021148e-01 6.260315e-06)	(1.021131e-01 1.021157e-01 -6.876529e-04)	(-9.017082e-07 -9.029702e-07 6.939132e-04)
0.0028        	(1.030613e-01 1.030599e-01 1.281973e-05)	(1.030622e-01 1.030608e-01 -6.867852e-04)	(-9.101481e-07 -9.109941e-07 6.996049e-04)
0.002825      	(1.040393e-01 1.040392e-01 1.968959e-05)	(1.040402e-01 1.040401e-01 -6.855574e-04)	(-9.180702e-07 -9.188864e-07 7.052470e-04)
0.00285       	(1.049774e-01 1.049764e-01 2.625437e-05)	(1.049783e-01 1.049774e-01 -6.845815e-04)	(-9.258890e-07 -9.263721e-07 7.108359e-04)
0.002875      	(1.059277e-01 1.059274e-01 3.270249e-05)	(1.059286e-01 1.059283e-01 -6.836652e-04)	(-9.332941e-07 -9.336258e-07 7.163677e-04)
0.0029        	(1.068905e-01 1.068901e-01 3.926397e-05)	(1.068914e-01 1.068911e-01 -6.825744e-04)	(-9.403871e-07 -9.405027e-07 7.218384e-04)
0.002925      	(1.078272e-01 1.078268e-01 4.564833e-05)	(1.078282e-01 1.078278e-01 -6.815957e-04)	(-9.472356e-07 -9.471099e-07 7.272440e-04)
0.00295       	(1.087635e-01 1.087639e-01 5.184519e-05)	(1.087644e-01 1.087649e-01 -6.807352e-04)	(-9.535096e-07 -9.535324e-07 7.325804e-04)
0.002975      	(1.097307e-01 1.097331e-01 5.844172e-05)	(1.097317e-01 1.097341e-01 -6.794016e-04)	(-9.589330e-07 -9.600633e-07 7.378433e-04)
0.003         	(1.106671e-01 1.106660e-01 6.448162e-05)	(1.106681e-01 1.106670e-01 -6.785473e-04)	(-9.647750e-07 -9.656421e-07 7.430289e-04)
0.003025      	(1.100570e-01 1.100554e-01 1.544079e-04)	(1.100580e-01 1.100563e-01 -5.922987e-04)	(-9.267551e-07 -9.269772e-07 7.467067e-04)
0.00305       	(1.086065e-01 1.086074e-01 2.821139e-04)	(1.086074e-01 1.086083e-01 -4.667394e-04)	(-8.833154e-07 -8.839165e-07 7.488533e-04)
0.003075      	(1.066270e-01 1.066259e-01 4.265302e-04)	(1.066278e-01 1.066267e-01 -3.228871e-04)	(-8.389874e-07 -8.390940e-07 7.494173e-04)
0.0031        	(1.043623e-01 1.043624e-01 5.752609e-04)	(1.043630e-01 1.043632e-01 -1.730988e-04)	(-7.947457e-07 -7.947489e-07 7.483597e-04)
0.003125      	(1.036034e-01 1.036018e-01 6.405574e-04)	(1.036042e-01 1.036026e-01 -1.065448e-04)	(-7.955116e-07 -7.946905e-07 7.471022e-04)
0.00315       	(1.037255e-01 1.037263e-01 6.630140e-04)	(1.037263e-01 1.037271e-01 -8.267800e-05)	(-8.002112e-07 -7.995185e-07 7.456920e-04)
0.003175      	(1.043919e-01 1.043929e-01 6.632767e-04)	(1.043927e-01 1.043937e-01 -8.094326e-05)	(-8.045045e-07 -8.041883e-07 7.442200e-04)
0.0032        	(1.053316e-01 1.053314e-01 6.554054e-04)	(1.053324e-01 1.053322e-01 -8.735401e-05)	(-8.063429e-07 -8.059098e-07 7.427594e-04)
0.003225      	(1.062549e-01 1.062549e-01 6.493468e-04)	(1.062557e-01 1.062557e-01 -9.197924e-05)	(-8.064609e-07 -8.059892e-07 7.413260e-04)
0.00325       	(1.070316e-01 1.070325e-01 6.493615e-04)	(1.070324e-01 1.070333e-01 -9.051470e-05)	(-8.068535e-07 -8.067645e-07 7.398762e-04)
0.003275      	(1.075698e-01 1.075691e-01 6.546414e-04)	(1.075706e-01 1.075699e-01 -8.369000e-05)	(-8.094851e-07 -8.091375e-07 7.383314e-04)
0.0033        	(1.079894e-01 1.079877e-01 6.630780e-04)	(1.079902e-01 1.079885e-01 -7.353467e-05)	(-8.145806e-07 -8.133860e-07 7.366127e-04)
0.003325      	(1.082983e-01 1.082992e-01 6.718726e-04)	(1.082991e-01 1.083000e-01 -6.279564e-05)	(-8.210538e-07 -8.200605e-07 7.346683e-04)
0.00335       	(1.085541e-01 1.085548e-01 6.791890e-04)	(1.085549e-01 1.085556e-01 -5.329685e-05)	(-8.286143e-07 -8.278465e-07 7.324858e-04)
0.003375      	(1.088519e-01 1.088517e-01 6.853483e-04)	(1.088527e-01 1.088525e-01 -4.473932e-05)	(-8.368539e-07 -8.358905e-07 7.300876e-04)
0.0034        	(1.091692e-01 1.091699e-01 6.905977e-04)	(1.091700e-01 1.091707e-01 -3.691799e-05)	(-8.451324e-07 -8.444042e-07 7.275156e-04)
0.003425      	(1.094353e-01 1.094353e-01 6.952302e-04)	(1.094361e-01 1.094361e-01 -2.958508e-05)	(-8.538838e-07 -8.532012e-07 7.248153e-04)
0.00345       	(1.097310e-01 1.097292e-01 7.001113e-04)	(1.097319e-01 1.097300e-01 -2.190929e-05)	(-8.635397e-07 -8.620722e-07 7.220206e-04)
0.003475      	(1.099896e-01 1.099899e-01 7.049940e-04)	(1.099904e-01 1.099908e-01 -1.415425e-05)	(-8.735055e-07 -8.721157e-07 7.191482e-04)
0.0035        	(1.101885e-01 1.101885e-01 7.094176e-04)	(1.101894e-01 1.101894e-01 -6.780315e-06)	(-8.842747e-07 -8.828550e-07 7.161979e-04)
0.003525      	(1.103972e-01 1.103968e-01 7.132726e-04)	(1.103981e-01 1.103977e-01 1.151751e-07)	(-8.954830e-07 -8.937978e-07 7.131574e-04)
0.00355       	(1.105997e-01 1.105994e-01 7.161839e-04)	(1.106006e-01 1.106003e-01 6.174717e-06)	(-9.065115e-07 -9.046041e-07 7.100092e-04)
0.003575      	(1.107774e-01 1.107802e-01 7.177577e-04)	(1.107783e-01 1.107811e-01 1.102047e-05)	(-9.159114e-07 -9.152269e-07 7.067372e-04)
0.0036        	(1.109831e-01 1.109833e-01 7.181896e-04)	(1.109840e-01 1.109842e-01 1.485908e-05)	(-9.241534e-07 -9.237801e-07 7.033305e-04)
0.003625      	(1.111739e-01 1.111732e-01 7.176586e-04)	(1.111748e-01 1.111741e-01 1.787444e-05)	(-9.303992e-07 -9.298804e-07 6.997842e-04)
0.00365       	(1.113601e-01 1.113595e-01 7.162591e-04)	(1.113611e-01 1.113604e-01 2.015909e-05)	(-9.338589e-07 -9.332014e-07 6.961000e-04)
0.003675      	(1.115885e-01 1.115888e-01 7.144754e-04)	(1.115894e-01 1.115898e-01 2.219171e-05)	(-9.341052e-07 -9.336756e-07 6.922837e-04)
0.0037        	(1.117808e-01 1.117814e-01 7.123425e-04)	(1.117817e-01 1.117823e-01 2.399984e-05)	(-9.313562e-07 -9.312689e-07 6.883426e-04)
0.003725      	(1.119430e-01 1.119411e-01 7.097757e-04)	(1.119439e-01 1.119420e-01 2.548976e-05)	(-9.262281e-07 -9.253464e-07 6.842860e-04)
0.00375       	(1.121143e-01 1.121122e-01 7.071242e-04)	(1.121152e-01 1.121131e-01 2.700254e-05)	(-9.183769e-07 -9.164531e-07 6.801216e-04)
0.003775      	(1.122567e-01 1.122578e-01 7.042341e-04)	(1.122576e-01 1.122587e-01 2.837761e-05)	(-9.073111e-07 -9.056618e-07 6.758565e-04)
0.0038        	(1.123680e-01 1.123690e-01 7.009717e-04)	(1.123689e-01 1.123699e-01 2.947403e-05)	(-8.938069e-07 -8.926004e-07 6.714977e-04)
0.003825      	(1.125096e-01 1.125089e-01 6.976427e-04)	(1.125105e-01 1.125098e-01 3.059239e-05)	(-8.784663e-07 -8.769692e-07 6.670503e-04)
0.00385       	(1.125998e-01 1.126015e-01 6.939844e-04)	(1.126007e-01 1.126024e-01 3.146521e-05)	(-8.606171e-07 -8.599228e-07 6.625191e-04)
0.003875      	(1.126797e-01 1.126798e-01 6.899316e-04)	(1.126805e-01 1.126806e-01 3.202265e-05)	(-8.412174e-07 -8.407786e-07 6.579089e-04)
0.0039        	(1.127769e-01 1.127788e-01 6.857636e-04)	(1.127777e-01 1.127797e-01 3.253988e-05)	(-8.196602e-07 -8.202629e-07 6.532237e-04)
0.003925      	(1.128607e-01 1.128611e-01 6.813480e-04)	(1.128615e-01 1.128619e-01 3.288075e-05)	(-7.968277e-07 -7.978359e-07 6.484672e-04)
0.00395       	(1.129169e-01 1.129148e-01 6.765377e-04)	(1.129177e-01 1.129156e-01 3.289407e-05)	(-7.732720e-07 -7.734528e-07 6.436437e-04)
0.003975      	(1.129833e-01 1.129828e-01 6.716780e-04)	(1.129841e-01 1.129835e-01 3.292136e-05)	(-7.482624e-07 -7.481073e-07 6.387566e-04)
0.004         	(1.130260e-01 1.130256e-01 6.666120e-04)	(1.130267e-01 1.130263e-01 3.280249e-05)	(-7.222586e-07 -7.218388e-07 6.338095e-04)
0.004025      	(1.130447e-01 1.130431e-01 6.612417e-04)	(1.130454e-01 1.130437e-01 3.243570e-05)	(-6.957675e-07 -6.944537e-07 6.288060e-04)
0.00405       	(1.130966e-01 1.130954e-01 6.560188e-04)	(1.130973e-01 1.130960e-01 3.226930e-05)	(-6.686327e-07 -6.665030e-07 6.237495e-04)
0.004075      	(1.131060e-01 1.131071e-01 6.504975e-04)	(1.131066e-01 1.131078e-01 3.185408e-05)	(-6.405237e-07 -6.386553e-07 6.186434e-04)
0.0041        	(1.131247e-01 1.131267e-01 6.449275e-04)	(1.131253e-01 1.131273e-01 3.143579e-05)	(-6.121054e-07 -6.110525e-07 6.134917e-04)
0.004125      	(1.131374e-01 1.131386e-01 6.393392e-04)	(1.131380e-01 1.131392e-01 3.104162e-05)	(-5.838154e-07 -5.834262e-07 6.082976e-04)
0.00415       	(1.131441e-01 1.131444e-01 6.335732e-04)	(1.131447e-01 1.131450e-01 3.050921e-05)	(-5.559853e-07 -5.559732e-07 6.030640e-04)
0.004175      	(1.131096e-01 1.131093e-01 6.276732e-04)	(1.131101e-01 1.131098e-01 2.987895e-05)	(-5.285811e-07 -5.286551e-07 5.977942e-04)
0.0042        	(1.131213e-01 1.131214e-01 6.219596e-04)	(1.131218e-01 1.131219e-01 2.946900e-05)	(-5.016425e-07 -5.018696e-07 5.924906e-04)
0.004225      	(1.131065e-01 1.131048e-01 6.160031e-04)	(1.131069e-01 1.131053e-01 2.884775e-05)	(-4.758397e-07 -4.753741e-07 5.871554e-04)
0.00425       	(1.130503e-01 1.130504e-01 6.099431e-04)	(1.130507e-01 1.130508e-01 2.815192e-05)	(-4.502334e-07 -4.496158e-07 5.817912e-04)
0.004275      	(1.130401e-01 1.130413e-01 6.040636e-04)	(1.130405e-01 1.130417e-01 2.766375e-05)	(-4.248667e-07 -4.246369e-07 5.763999e-04)
0.0043        	(1.129986e-01 1.129982e-01 5.980136e-04)	(1.129990e-01 1.129986e-01 2.703044e-05)	(-4.005582e-07 -4.001018e-07 5.709831e-04)
0.004325      	(1.129345e-01 1.129350e-01 5.918640e-04)	(1.129349e-01 1.129354e-01 2.632102e-05)	(-3.765597e-07 -3.763134e-07 5.655430e-04)
0.00435       	(1.129072e-01 1.129072e-01 5.859432e-04)	(1.129075e-01 1.129076e-01 2.586220e-05)	(-3.531129e-07 -3.530108e-07 5.600810e-04)
0.004375      	(1.128585e-01 1.128609e-01 5.799137e-04)	(1.128589e-01 1.128613e-01 2.531483e-05)	(-3.297622e-07 -3.308645e-07 5.545988e-04)
0.0044        	(1.127948e-01 1.127930e-01 5.737974e-04)	(1.127951e-01 1.127933e-01 2.469909e-05)	(-3.077779e-07 -3.083769e-07 5.490983e-04)
0.004425      	(1.127557e-01 1.127567e-01 5.679025e-04)	(1.127560e-01 1.127570e-01 2.432136e-05)	(-2.858276e-07 -2.869750e-07 5.435812e-04)
0.00445       	(1.127056e-01 1.127046e-01 5.619585e-04)	(1.127059e-01 1.127049e-01 2.390928e-05)	(-2.647584e-07 -2.656693e-07 5.380492e-04)
0.004475      	(1.126232e-01 1.126216e-01 5.558737e-04)	(1.126235e-01 1.126218e-01 2.336925e-05)	(-2.443392e-07 -2.445275e-07 5.325045e-04)
0.0045        	(1.125617e-01 1.125617e-01 5.499942e-04)	(1.125619e-01 1.125620e-01 2.304568e-05)	(-2.241090e-07 -2.242161e-07 5.269485e-04)
0.004525      	(1.124919e-01 1.124921e-01 5.440970e-04)	(1.124921e-01 1.124923e-01 2.271391e-05)	(-2.041806e-07 -2.043162e-07 5.213831e-04)
0.00455       	(1.123928e-01 1.123939e-01 5.380856e-04)	(1.123930e-01 1.123940e-01 2.227587e-05)	(-1.844025e-07 -1.849851e-07 5.158097e-04)
0.004575      	(1.123399e-01 1.123399e-01 5.324052e-04)	(1.123400e-01 1.123401e-01 2.217486e-05)	(-1.651703e-07 -1.658941e-07 5.102304e-04)
0.0046        	(1.122689e-01 1.122688e-01 5.266663e-04)	(1.122690e-01 1.122690e-01 2.201989e-05)	(-1.464035e-07 -1.472427e-07 5.046464e-04)
0.004625      	(1.121724e-01 1.121721e-01 5.208396e-04)	(1.121725e-01 1.121723e-01 2.177987e-05)	(-1.280136e-07 -1.289100e-07 4.990598e-04)
0.00465       	(1.121088e-01 1.121093e-01 5.152586e-04)	(1.121089e-01 1.121094e-01 2.178676e-05)	(-1.098526e-07 -1.110694e-07 4.934719e-04)
0.004675      	(1.120260e-01 1.120251e-01 5.096152e-04)	(1.120261e-01 1.120252e-01 2.173145e-05)	(-9.256368e-08 -9.346933e-08 4.878837e-04)
0.0047        	(1.119232e-01 1.119231e-01 5.039194e-04)	(1.119232e-01 1.119232e-01 2.162194e-05)	(-7.542883e-08 -7.623898e-08 4.822974e-04)
0.004725      	(1.118423e-01 1.118422e-01 4.984090e-04)	(1.118423e-01 1.118422e-01 2.169493e-05)	(-5.875031e-08 -5.944936e-08 4.767141e-04)
0.00475       	(1.117435e-01 1.117448e-01 4.928606e-04)	(1.117435e-01 1.117448e-01 2.172586e-05)	(-4.222936e-08 -4.344920e-08 4.711347e-04)
0.004775      	(1.116476e-01 1.116464e-01 4.873392e-04)	(1.116477e-01 1.116464e-01 2.177780e-05)	(-2.669871e-08 -2.738379e-08 4.655614e-04)
0.0048        	(1.115619e-01 1.115624e-01 4.819755e-04)	(1.115620e-01 1.115624e-01 2.198042e-05)	(-1.128432e-08 -1.206797e-08 4.599951e-04)
0.004825      	(1.114643e-01 1.114645e-01 4.765675e-04)	(1.114643e-01 1.114645e-01 2.213076e-05)	(3.594802e-09 2.677837e-09 4.544367e-04)
0.00485       	(1.113587e-01 1.113587e-01 4.711721e-04)	(1.113587e-01 1.113587e-01 2.228446e-05)	(1.786157e-08 1.694349e-08 4.488877e-04)
0.004875      	(1.112739e-01 1.112744e-01 4.659351e-04)	(1.112739e-01 1.112744e-01 2.258614e-05)	(3.170245e-08 3.056706e-08 4.433490e-04)
0.0049        	(1.111790e-01 1.111789e-01 4.606497e-04)	(1.111789e-01 1.111789e-01 2.282830e-05)	(4.477849e-08 4.361512e-08 4.378214e-04)
0.004925      	(1.110591e-01 1.110587e-01 4.553054e-04)	(1.110590e-01 1.110587e-01 2.299883e-05)	(5.709497e-08 5.609918e-08 4.323066e-04)
0.00495       	(1.109808e-01 1.109804e-01 4.501536e-04)	(1.109807e-01 1.109803e-01 2.334826e-05)	(6.872508e-08 6.795123e-08 4.268053e-04)
0.004975      	(1.108750e-01 1.108748e-01 4.449075e-04)	(1.108749e-01 1.108747e-01 2.358898e-05)	(7.953151e-08 7.894220e-08 4.213185e-04)
0.005         	(1.107662e-01 1.107661e-01 4.396663e-04)	(1.107661e-01 1.107661e-01 2.381956e-05)	(8.957730e-08 8.911303e-08 4.158468e-04)
0.005025      	(1.106747e-01 1.106747e-01 4.345267e-04)	(1.106746e-01 1.106746e-01 2.413558e-05)	(9.878510e-08 9.840351e-08 4.103912e-04)
0.00505       	(1.105909e-01 1.105900e-01 4.294070e-04)	(1.105908e-01 1.105899e-01 2.445449e-05)	(1.068363e-07 1.069193e-07 4.049525e-04)
0.005075      	(1.104663e-01 1.104668e-01 4.241072e-04)	(1.104662e-01 1.104667e-01 2.457533e-05)	(1.141762e-07 1.141444e-07 3.995319e-04)
0.0051        	(1.103783e-01 1.103783e-01 4.190166e-04)	(1.103782e-01 1.103782e-01 2.488661e-05)	(1.204676e-07 1.204421e-07 3.941300e-04)
0.005125      	(1.102696e-01 1.102698e-01 4.137453e-04)	(1.102695e-01 1.102697e-01 2.499749e-05)	(1.256562e-07 1.255618e-07 3.887479e-04)
0.00515       	(1.101556e-01 1.101559e-01 4.084654e-04)	(1.101555e-01 1.101558e-01 2.507919e-05)	(1.297371e-07 1.295147e-07 3.833862e-04)
0.005175      	(1.100764e-01 1.100763e-01 4.033380e-04)	(1.100763e-01 1.100761e-01 2.529209e-05)	(1.325766e-07 1.323874e-07 3.780459e-04)
0.0052        	(1.099773e-01 1.099772e-01 3.980744e-04)	(1.099772e-01 1.099771e-01 2.534643e-05)	(1.341183e-07 1.339418e-07 3.727279e-04)
0.005225      	(1.098554e-01 1.098555e-01 3.926682e-04)	(1.098552e-01 1.098553e-01 2.523471e-05)	(1.343274e-07 1.340970e-07 3.674335e-04)
0.00525       	(1.097686e-01 1.097699e-01 3.874969e-04)	(1.097685e-01 1.097697e-01 2.533346e-05)	(1.336092e-07 1.328323e-07 3.621635e-04)
0.005275      	(1.096787e-01 1.096784e-01 3.821395e-04)	(1.096786e-01 1.096782e-01 2.522047e-05)	(1.312409e-07 1.305421e-07 3.569191e-04)