# Moment      
# CofR        : (5.000000e-01 1.000000e-01 0.000000e+00)
#
# Time        	(total_x total_y total_z)	(pressure_x pressure_y pressure_z)	(viscous_x viscous_y viscous_z)
2.5e-05       	(-9.224584e-06 1.005025e-05 -2.458452e-03)	(-8.685653e-06 7.282380e-06 -2.458588e-03)	(-5.389307e-07 2.767873e-06 1.355180e-07)
5e-05         	(-1.786345e-05 1.919010e-05 -3.824393e-03)	(-1.678515e-05 1.365219e-05 -3.824597e-03)	(-1.078304e-06 5.537907e-06 2.045062e-07)
7.5e-05       	(-2.412630e-05 2.563010e-05 -4.632955e-03)	(-2.249156e-05 1.723458e-05 -4.633221e-03)	(-1.634733e-06 8.395526e-06 2.653591e-07)
0.0001        	(-2.767345e-05 2.892698e-05 -5.032757e-03)	(-2.546887e-05 1.760498e-05 -5.033078e-03)	(-2.204571e-06 1.132200e-05 3.203992e-07)
0.000125      	(-2.862761e-05 2.907977e-05 -5.130333e-03)	(-2.585287e-05 1.482961e-05 -5.130706e-03)	(-2.774731e-06 1.425017e-05 3.729320e-07)
0.00015       	(-2.774775e-05 2.680682e-05 -5.071211e-03)	(-2.441536e-05 9.692629e-06 -5.071635e-03)	(-3.332386e-06 1.711419e-05 4.231218e-07)
0.000175      	(-2.604857e-05 2.315892e-05 -4.997538e-03)	(-2.217678e-05 3.274321e-06 -4.998008e-03)	(-3.871796e-06 1.988459e-05 4.697799e-07)
0.0002        	(-2.484938e-05 1.963802e-05 -5.008281e-03)	(-2.045338e-05 -2.938925e-06 -5.008792e-03)	(-4.395998e-06 2.257694e-05 5.118958e-07)
0.000225      	(-2.444900e-05 1.671890e-05 -5.122108e-03)	(-1.953486e-05 -8.519268e-06 -5.122658e-03)	(-4.914134e-06 2.523817e-05 5.492961e-07)
0.00025       	(-2.495080e-05 1.465459e-05 -5.319007e-03)	(-1.951396e-05 -1.326829e-05 -5.319589e-03)	(-5.436841e-06 2.792288e-05 5.823033e-07)
0.000275      	(-2.647448e-05 1.359390e-05 -5.568723e-03)	(-2.050235e-05 -1.707829e-05 -5.569334e-03)	(-5.972124e-06 3.067219e-05 6.114370e-07)
0.0003        	(-2.819533e-05 1.264899e-05 -5.827056e-03)	(-2.167213e-05 -2.085363e-05 -5.827694e-03)	(-6.523198e-06 3.350261e-05 6.370857e-07)
0.000325      	(-2.985761e-05 1.145197e-05 -6.077405e-03)	(-2.276906e-05 -2.495444e-05 -6.078065e-03)	(-7.088555e-06 3.640641e-05 6.593095e-07)
0.00035       	(-3.142855e-05 9.857858e-06 -6.319522e-03)	(-2.376497e-05 -2.950207e-05 -6.320200e-03)	(-7.663586e-06 3.935993e-05 6.780152e-07)
0.000375      	(-3.263767e-05 7.542595e-06 -6.554183e-03)	(-2.439488e-05 -3.479232e-05 -6.554876e-03)	(-8.242786e-06 4.233491e-05 6.930267e-07)
0.0004        	(-3.369432e-05 4.735038e-06 -6.793416e-03)	(-2.487268e-05 -4.057312e-05 -6.794120e-03)	(-8.821636e-06 4.530816e-05 7.042036e-07)
0.000425      	(-3.488967e-05 1.808370e-06 -7.047270e-03)	(-2.549203e-05 -4.645852e-05 -7.047981e-03)	(-9.397645e-06 4.826689e-05 7.115613e-07)
0.00045       	(-3.607306e-05 -1.286842e-06 -7.311274e-03)	(-2.610256e-05 -5.249633e-05 -7.311989e-03)	(-9.970503e-06 5.120949e-05 7.153111e-07)
0.000475      	(-3.757236e-05 -4.100638e-06 -7.588801e-03)	(-2.703080e-05 -5.824353e-05 -7.589517e-03)	(-1.054156e-05 5.414289e-05 7.157899e-07)
0.0005        	(-3.930255e-05 -6.623283e-06 -7.872091e-03)	(-2.818955e-05 -6.370159e-05 -7.872804e-03)	(-1.111300e-05 5.707831e-05 7.134507e-07)
0.000525      	(-4.112128e-05 -8.923049e-06 -8.153323e-03)	(-2.943422e-05 -6.895029e-05 -8.154032e-03)	(-1.168706e-05 6.002724e-05 7.087172e-07)
0.00055       	(-4.316865e-05 -1.079042e-05 -8.432969e-03)	(-3.090315e-05 -7.378902e-05 -8.433671e-03)	(-1.226549e-05 6.299860e-05 7.019035e-07)
0.000575      	(-4.543015e-05 -1.229403e-05 -8.710376e-03)	(-3.258086e-05 -7.829161e-05 -8.711069e-03)	(-1.284929e-05 6.599758e-05 6.936195e-07)
0.0006        	(-4.761155e-05 -1.366309e-05 -8.980271e-03)	(-3.417280e-05 -8.268881e-05 -8.980955e-03)	(-1.343875e-05 6.902572e-05 6.840183e-07)
0.000625      	(-5.001943e-05 -1.464918e-05 -9.251940e-03)	(-3.598577e-05 -8.673110e-05 -9.252613e-03)	(-1.403366e-05 7.208192e-05 6.734463e-07)
0.00065       	(-5.264053e-05 -1.519322e-05 -9.527413e-03)	(-3.800700e-05 -9.035676e-05 -9.528075e-03)	(-1.463353e-05 7.516353e-05 6.616984e-07)
0.000675      	(-5.528663e-05 -1.562543e-05 -9.804326e-03)	(-4.004888e-05 -9.389295e-05 -9.804975e-03)	(-1.523775e-05 7.826752e-05 6.490227e-07)
0.0007        	(-5.812207e-05 -1.578738e-05 -1.008847e-02)	(-4.227631e-05 -9.717844e-05 -1.008910e-02)	(-1.584576e-05 8.139105e-05 6.356987e-07)
0.000725      	(-6.126875e-05 -1.553022e-05 -1.038185e-02)	(-4.481163e-05 -1.000620e-04 -1.038248e-02)	(-1.645712e-05 8.453179e-05 6.217049e-07)
0.00075       	(-6.439803e-05 -1.522724e-05 -1.067724e-02)	(-4.732656e-05 -1.029152e-04 -1.067784e-02)	(-1.707147e-05 8.768795e-05 6.071987e-07)
0.000775      	(-6.778338e-05 -1.458276e-05 -1.097982e-02)	(-5.009484e-05 -1.054409e-04 -1.098041e-02)	(-1.768854e-05 9.085814e-05 5.923450e-07)
0.0008        	(-7.141972e-05 -1.359100e-05 -1.128911e-02)	(-5.311160e-05 -1.076322e-04 -1.128969e-02)	(-1.830811e-05 9.404123e-05 5.772114e-07)
0.000825      	(-7.489458e-05 -1.265818e-05 -1.159541e-02)	(-5.596458e-05 -1.098944e-04 -1.159597e-02)	(-1.893000e-05 9.723625e-05 5.618662e-07)
0.00085       	(-7.871208e-05 -1.128295e-05 -1.190900e-02)	(-5.915805e-05 -1.117253e-04 -1.190954e-02)	(-1.955403e-05 1.004423e-04 5.464696e-07)
0.000875      	(-8.286796e-05 -9.415342e-06 -1.222951e-02)	(-6.268792e-05 -1.130740e-04 -1.223004e-02)	(-2.018004e-05 1.036586e-04 5.310611e-07)
0.0009        	(-8.682849e-05 -7.639992e-06 -1.254603e-02)	(-6.602062e-05 -1.145244e-04 -1.254655e-02)	(-2.080787e-05 1.068844e-04 5.157425e-07)
0.000925      	(-9.121889e-05 -5.276128e-06 -1.287086e-02)	(-6.978148e-05 -1.153950e-04 -1.287136e-02)	(-2.143740e-05 1.101189e-04 5.005080e-07)
0.00095       	(-9.585573e-05 -2.534559e-06 -1.320111e-02)	(-7.378724e-05 -1.158960e-04 -1.320160e-02)	(-2.206849e-05 1.133614e-04 4.854285e-07)
0.000975      	(-1.003296e-04 1.409014e-07 -1.352822e-02)	(-7.762863e-05 -1.164704e-04 -1.352869e-02)	(-2.270099e-05 1.166113e-04 4.705585e-07)
0.001         	(-1.051451e-04 3.278515e-06 -1.386219e-02)	(-8.181038e-05 -1.165892e-04 -1.386265e-02)	(-2.333475e-05 1.198677e-04 4.559833e-07)
0.001025      	(-1.102385e-04 6.843824e-06 -1.420243e-02)	(-8.626892e-05 -1.162860e-04 -1.420287e-02)	(-2.396962e-05 1.231299e-04 4.415484e-07)
0.00105       	(-1.152656e-04 1.040888e-05 -1.454117e-02)	(-9.066020e-05 -1.159880e-04 -1.454160e-02)	(-2.460544e-05 1.263969e-04 4.273887e-07)
0.001075      	(-1.204477e-04 1.425990e-05 -1.488364e-02)	(-9.520570e-05 -1.154082e-04 -1.488405e-02)	(-2.524205e-05 1.296681e-04 4.133133e-07)
0.0011        	(-1.262071e-04 1.877163e-05 -1.523664e-02)	(-1.003278e-04 -1.141708e-04 -1.523704e-02)	(-2.587927e-05 1.329425e-04 3.997647e-07)
0.001125      	(-1.316038e-04 2.301981e-05 -1.558205e-02)	(-1.050868e-04 -1.131996e-04 -1.558243e-02)	(-2.651698e-05 1.362194e-04 3.865740e-07)
0.00115       	(-1.374407e-04 2.784912e-05 -1.593602e-02)	(-1.102856e-04 -1.116493e-04 -1.593640e-02)	(-2.715507e-05 1.394984e-04 3.737301e-07)
0.001175      	(-1.435238e-04 3.306202e-05 -1.629393e-02)	(-1.157303e-04 -1.097168e-04 -1.629429e-02)	(-2.779344e-05 1.427789e-04 3.612426e-07)
0.0012        	(-1.494274e-04 3.818804e-05 -1.664718e-02)	(-1.209953e-04 -1.078725e-04 -1.664752e-02)	(-2.843204e-05 1.460605e-04 3.491478e-07)
0.001225      	(-1.557930e-04 4.394305e-05 -1.700828e-02)	(-1.267222e-04 -1.054001e-04 -1.700862e-02)	(-2.907082e-05 1.493432e-04 3.374165e-07)
0.00125       	(-1.625268e-04 5.020712e-05 -1.737555e-02)	(-1.328170e-04 -1.024195e-04 -1.737588e-02)	(-2.970974e-05 1.526266e-04 3.261537e-07)
0.001275      	(-1.689005e-04 5.619886e-05 -1.773358e-02)	(-1.385517e-04 -9.971174e-05 -1.773390e-02)	(-3.034877e-05 1.559106e-04 3.153575e-07)
0.0013        	(-1.757516e-04 6.283263e-05 -1.809950e-02)	(-1.447637e-04 -9.636243e-05 -1.809980e-02)	(-3.098788e-05 1.591951e-04 3.050541e-07)
0.001325      	(-1.828446e-04 6.984721e-05 -1.846858e-02)	(-1.512176e-04 -9.263260e-05 -1.846888e-02)	(-3.162703e-05 1.624798e-04 2.953035e-07)
0.00135       	(-1.897734e-04 7.678691e-05 -1.883218e-02)	(-1.575072e-04 -8.897772e-05 -1.883247e-02)	(-3.226619e-05 1.657646e-04 2.861162e-07)
0.001375      	(-1.971712e-04 8.435499e-05 -1.920358e-02)	(-1.642659e-04 -8.469429e-05 -1.920386e-02)	(-3.290531e-05 1.690493e-04 2.775110e-07)
0.0014        	(-2.050539e-04 9.258365e-05 -1.958273e-02)	(-1.715095e-04 -7.974983e-05 -1.958300e-02)	(-3.354434e-05 1.723335e-04 2.695328e-07)
0.001425      	(-2.124165e-04 1.003132e-04 -1.995001e-02)	(-1.782333e-04 -7.530378e-05 -1.995028e-02)	(-3.418321e-05 1.756169e-04 2.622076e-07)
0.00145       	(-2.201033e-04 1.085149e-04 -2.032090e-02)	(-1.852815e-04 -7.038440e-05 -2.032116e-02)	(-3.482186e-05 1.788993e-04 2.554290e-07)
0.001475      	(-2.285291e-04 1.176135e-04 -2.070453e-02)	(-1.930689e-04 -6.456690e-05 -2.070478e-02)	(-3.546025e-05 1.821804e-04 2.492370e-07)
0.0015        	(-2.364136e-04 1.262044e-04 -2.107617e-02)	(-2.003153e-04 -5.925530e-05 -2.107641e-02)	(-3.609830e-05 1.854597e-04 2.435938e-07)
0.001525      	(-2.446860e-04 1.353032e-04 -2.145222e-02)	(-2.079500e-04 -5.343386e-05 -2.145245e-02)	(-3.673596e-05 1.887370e-04 2.386172e-07)
0.00155       	(-2.534731e-04 1.450547e-04 -2.183706e-02)	(-2.161000e-04 -4.695729e-05 -2.183729e-02)	(-3.737314e-05 1.920120e-04 2.342612e-07)
0.001575      	(-2.618678e-04 1.544547e-04 -2.221216e-02)	(-2.238580e-04 -4.082971e-05 -2.221240e-02)	(-3.800981e-05 1.952844e-04 2.304357e-07)
0.0016        	(-2.705667e-04 1.642767e-04 -2.259093e-02)	(-2.319208e-04 -3.427704e-05 -2.259116e-02)	(-3.864589e-05 1.985537e-04 2.272631e-07)
0.001625      	(-2.800102e-04 1.749817e-04 -2.298219e-02)	(-2.407289e-04 -2.683806e-05 -2.298242e-02)	(-3.928133e-05 2.018198e-04 2.245998e-07)
0.00165       	(-2.889870e-04 1.852249e-04 -2.336195e-02)	(-2.490709e-04 -1.985730e-05 -2.336217e-02)	(-3.991606e-05 2.050822e-04 2.224650e-07)
0.001675      	(-2.983838e-04 1.960154e-04 -2.374729e-02)	(-2.578338e-04 -1.232536e-05 -2.374751e-02)	(-4.055002e-05 2.083408e-04 2.208123e-07)
0.0017        	(-3.080547e-04 2.071634e-04 -2.413597e-02)	(-2.668716e-04 -4.431627e-06 -2.413619e-02)	(-4.118315e-05 2.115951e-04 2.196244e-07)
0.001725      	(-3.174215e-04 2.180261e-04 -2.451653e-02)	(-2.756061e-04 3.181239e-06 -2.451675e-02)	(-4.181540e-05 2.148448e-04 2.188985e-07)
0.00175       	(-3.270517e-04 2.292496e-04 -2.489933e-02)	(-2.846050e-04 1.115979e-05 -2.489955e-02)	(-4.244671e-05 2.180898e-04 2.186318e-07)
0.001775      	(-3.375235e-04 2.414478e-04 -2.529687e-02)	(-2.944465e-04 2.011805e-05 -2.529709e-02)	(-4.307703e-05 2.213297e-04 2.187292e-07)
0.0018        	(-3.472176e-04 2.528151e-04 -2.567695e-02)	(-3.035113e-04 2.825078e-05 -2.567717e-02)	(-4.370631e-05 2.245643e-04 2.194246e-07)
0.001825      	(-3.574484e-04 2.648471e-04 -2.606375e-02)	(-3.131139e-04 3.705377e-05 -2.606397e-02)	(-4.433450e-05 2.277933e-04 2.202307e-07)
0.00185       	(-3.682535e-04 2.775549e-04 -2.646004e-02)	(-3.232920e-04 4.653834e-05 -2.646026e-02)	(-4.496157e-05 2.310165e-04 2.214774e-07)
0.001875      	(-3.786382e-04 2.897891e-04 -2.684478e-02)	(-3.330507e-04 5.555529e-05 -2.684500e-02)	(-4.558747e-05 2.342338e-04 2.229581e-07)
0.0019        	(-3.896038e-04 3.027994e-04 -2.723854e-02)	(-3.433916e-04 6.535457e-05 -2.723876e-02)	(-4.621216e-05 2.374449e-04 2.248554e-07)
0.001925      	(-4.006832e-04 3.159454e-04 -2.763188e-02)	(-3.538476e-04 7.529583e-05 -2.763210e-02)	(-4.683563e-05 2.406496e-04 2.270621e-07)
0.00195       	(-4.118176e-04 3.290878e-04 -2.802257e-02)	(-3.643598e-04 8.523992e-05 -2.802280e-02)	(-4.745782e-05 2.438479e-04 2.296294e-07)
0.001975      	(-4.227836e-04 3.422574e-04 -2.840910e-02)	(-3.747049e-04 9.521782e-05 -2.840933e-02)	(-4.807873e-05 2.470395e-04 2.323701e-07)
0.002         	(-4.342458e-04 3.559323e-04 -2.880206e-02)	(-3.855475e-04 1.057078e-04 -2.880230e-02)	(-4.869835e-05 2.502245e-04 2.353332e-07)
0.002025      	(-4.457738e-04 3.696269e-04 -2.919325e-02)	(-3.964571e-04 1.162242e-04 -2.919349e-02)	(-4.931664e-05 2.534027e-04 2.384731e-07)
0.00205       	(-4.571765e-04 3.833252e-04 -2.957712e-02)	(-4.072429e-04 1.267513e-04 -2.957736e-02)	(-4.993357e-05 2.565739e-04 2.418003e-07)
0.002075      	(-4.693239e-04 3.978430e-04 -2.997493e-02)	(-4.187748e-04 1.381050e-04 -2.997518e-02)	(-5.054912e-05 2.597380e-04 2.453717e-07)
0.0021        	(-4.811357e-04 4.119195e-04 -3.036423e-02)	(-4.299725e-04 1.490245e-04 -3.036448e-02)	(-5.116327e-05 2.628949e-04 2.495420e-07)
0.002125      	(-4.930529e-04 4.262882e-04 -3.074900e-02)	(-4.412769e-04 1.602436e-04 -3.074926e-02)	(-5.177602e-05 2.660446e-04 2.533463e-07)
0.00215       	(-5.061623e-04 4.419575e-04 -3.115350e-02)	(-4.537749e-04 1.727705e-04 -3.115376e-02)	(-5.238734e-05 2.691870e-04 2.570969e-07)
0.002175      	(-5.184898e-04 4.566705e-04 -3.154367e-02)	(-4.654926e-04 1.843487e-04 -3.154393e-02)	(-5.299720e-05 2.723218e-04 2.610086e-07)
0.0022        	(-5.307065e-04 4.713601e-04 -3.192685e-02)	(-4.771009e-04 1.959111e-04 -3.192712e-02)	(-5.360558e-05 2.754491e-04 2.652176e-07)
0.002225      	(-5.437684e-04 4.870120e-04 -3.232310e-02)	(-4.895560e-04 2.084435e-04 -3.232337e-02)	(-5.421246e-05 2.785686e-04 2.694240e-07)
0.00225       	(-5.563075e-04 5.020993e-04 -3.270845e-02)	(-5.014897e-04 2.204191e-04 -3.270872e-02)	(-5.481781e-05 2.816802e-04 2.736113e-07)
0.002275      	(-5.694601e-04 5.178098e-04 -3.309962e-02)	(-5.140386e-04 2.330261e-04 -3.309990e-02)	(-5.542159e-05 2.847837e-04 2.780173e-07)
0.0023        	(-5.829880e-04 5.340089e-04 -3.349557e-02)	(-5.269642e-04 2.461297e-04 -3.349585e-02)	(-5.602378e-05 2.878791e-04 2.824686e-07)
0.002325      	(-5.961006e-04 5.497039e-04 -3.388192e-02)	(-5.394763e-04 2.587377e-04 -3.388221e-02)	(-5.662436e-05 2.909662e-04 2.869251e-07)
0.00235       	(-6.094638e-04 5.657248e-04 -3.426977e-02)	(-5.522406e-04 2.716801e-04 -3.427007e-02)	(-5.722325e-05 2.940447e-04 2.915248e-07)
0.002375      	(-6.237613e-04 5.828159e-04 -3.466896e-02)	(-5.659408e-04 2.857017e-04 -3.466925e-02)	(-5.782043e-05 2.971143e-04 2.959562e-07)
0.0024        	(-6.374802e-04 5.991679e-04 -3.506001e-02)	(-5.790644e-04 2.989932e-04 -3.506031e-02)	(-5.841583e-05 3.001747e-04 3.003770e-07)
0.002425      	(-6.507834e-04 6.150811e-04 -3.543665e-02)	(-5.917740e-04 3.118553e-04 -3.543695e-02)	(-5.900939e-05 3.032257e-04 3.049987e-07)
0.00245       	(-6.653872e-04 6.324672e-04 -3.583431e-02)	(-6.057861e-04 3.262002e-04 -3.583462e-02)	(-5.960105e-05 3.062670e-04 3.094104e-07)
0.002475      	(-6.792153e-04 6.489785e-04 -3.621623e-02)	(-6.190245e-04 3.396804e-04 -3.621654e-02)	(-6.019075e-05 3.092981e-04 3.138310e-07)
0.0025        	(-6.934925e-04 6.659792e-04 -3.660446e-02)	(-6.327142e-04 3.536606e-04 -3.660478e-02)	(-6.077838e-05 3.123185e-04 3.180884e-07)
0.002525      	(-7.082232e-04 6.834918e-04 -3.699590e-02)	(-6.468594e-04 3.681640e-04 -3.699623e-02)	(-6.136383e-05 3.153278e-04 3.223200e-07)
0.00255       	(-7.226655e-04 7.006460e-04 -3.738064e-02)	(-6.607185e-04 3.823207e-04 -3.738097e-02)	(-6.194699e-05 3.183253e-04 3.265427e-07)
0.002575      	(-7.372821e-04 7.179852e-04 -3.776473e-02)	(-6.747544e-04 3.966750e-04 -3.776506e-02)	(-6.252772e-05 3.213103e-04 3.307057e-07)
0.0026        	(-7.528677e-04 7.364366e-04 -3.816291e-02)	(-6.897618e-04 4.121546e-04 -3.816325e-02)	(-6.310588e-05 3.242820e-04 3.347244e-07)
0.002625      	(-7.676206e-04 7.537792e-04 -3.854622e-02)	(-7.039393e-04 4.265395e-04 -3.854656e-02)	(-6.368130e-05 3.272397e-04 3.387836e-07)
0.00265       	(-7.823518e-04 7.712551e-04 -3.892348e-02)	(-7.180980e-04 4.410728e-04 -3.892382e-02)	(-6.425379e-05 3.301824e-04 3.428348e-07)
0.002675      	(-7.980150e-04 7.897150e-04 -3.931567e-02)	(-7.331918e-04 4.566060e-04 -3.931602e-02)	(-6.482318e-05 3.331090e-04 3.466784e-07)
0.0027        	(-8.131140e-04 8.074844e-04 -3.969705e-02)	(-7.477248e-04 4.714660e-04 -3.969740e-02)	(-6.538921e-05 3.360184e-04 3.504140e-07)
0.002725      	(-8.286444e-04 8.257579e-04 -4.008011e-02)	(-7.626928e-04 4.868486e-04 -4.008047e-02)	(-6.595164e-05 3.389093e-04 3.540764e-07)
0.00275       	(-8.447691e-04 8.446646e-04 -4.047114e-02)	(-7.782589e-04 5.028843e-04 -4.047150e-02)	(-6.651021e-05 3.417803e-04 3.575415e-07)
0.002775      	(-8.599023e-04 8.624085e-04 -4.084620e-02)	(-7.928376e-04 5.177786e-04 -4.084656e-02)	(-6.706461e-05 3.446299e-04 3.613093e-07)
0.0028        	(-8.754729e-04 8.806265e-04 -4.122383e-02)	(-8.078584e-04 5.331700e-04 -4.122420e-02)	(-6.761455e-05 3.474565e-04 3.644789e-07)
0.002825      	(-8.920661e-04 8.999384e-04 -4.161566e-02)	(-8.239064e-04 5.496799e-04 -4.161603e-02)	(-6.815968e-05 3.502585e-04 3.676329e-07)
0.00285       	(-9.077398e-04 9.182412e-04 -4.199047e-02)	(-8.390401e-04 5.652072e-04 -4.199084e-02)	(-6.869968e-05 3.530340e-04 3.705952e-07)
0.002875      	(-9.238773e-04 9.369506e-04 -4.237092e-02)	(-8.546432e-04 5.811694e-04 -4.237130e-02)	(-6.923416e-05 3.557812e-04 3.734821e-07)
0.0029        	(-9.404074e-04 9.561202e-04 -4.275601e-02)	(-8.706446e-04 5.976221e-04 -4.275638e-02)	(-6.976273e-05 3.584981e-04 3.762120e-07)
0.002925      	(-9.565339e-04 9.747841e-04 -4.313069e-02)	(-8.862489e-04 6.136015e-04 -4.313107e-02)	(-7.028501e-05 3.611826e-04 3.788317e-07)
0.00295       	(-9.726739e-04 9.934101e-04 -4.350562e-02)	(-9.018733e-04 6.295773e-04 -4.350600e-02)	(-7.080060e-05 3.638328e-04 3.814150e-07)
0.002975      	(-9.898081e-04 1.013132e-03 -4.389350e-02)	(-9.184990e-04 6.466853e-04 -4.389389e-02)	(-7.130909e-05 3.664464e-04 3.841340e-07)
0.003         	(-1.006124e-03 1.031918e-03 -4.426631e-02)	(-9.343140e-04 6.628962e-04 -4.426670e-02)	(-7.181010e-05 3.690217e-04 3.863402e-07)
0.003025      	(-1.028383e-03 1.090180e-03 -4.402200e-02)	(-9.562175e-04 7.193324e-04 -4.402237e-02)	(-7.216532e-05 3.708480e-04 3.708121e-07)
0.00305       	(-1.052657e-03 1.165504e-03 -4.344305e-02)	(-9.802847e-04 7.935904e-04 -4.344341e-02)	(-7.237248e-05 3.719138e-04 3.536243e-07)
0.003075      	(-1.076645e-03 1.247312e-03 -4.265024e-02)	(-1.004218e-03 8.751189e-04 -4.265057e-02)	(-7.242662e-05 3.721935e-04 3.356477e-07)
0.0031        	(-1.099847e-03 1.329942e-03 -4.174498e-02)	(-1.027524e-03 9.582738e-04 -4.174529e-02)	(-7.232396e-05 3.716678e-04 3.178998e-07)
0.003125      	(-1.117804e-03 1.374044e-03 -4.144057e-02)	(-1.045602e-03 1.003001e-03 -4.144089e-02)	(-7.220201e-05 3.710429e-04 3.177970e-07)
0.00315       	(-1.133638e-03 1.398796e-03 -4.149058e-02)	(-1.061572e-03 1.028453e-03 -4.149090e-02)	(-7.206531e-05 3.703421e-04 3.197405e-07)
0.003175      	(-1.149048e-03 1.414325e-03 -4.175726e-02)	(-1.077125e-03 1.044714e-03 -4.175758e-02)	(-7.192266e-05 3.696107e-04 3.216448e-07)
0.0032        	(-1.165359e-03 1.427536e-03 -4.213253e-02)	(-1.093578e-03 1.058651e-03 -4.213285e-02)	(-7.178116e-05 3.688849e-04 3.223221e-07)
0.003225      	(-1.181963e-03 1.441740e-03 -4.250195e-02)	(-1.110320e-03 1.073567e-03 -4.250227e-02)	(-7.164234e-05 3.681727e-04 3.223502e-07)
0.00325       	(-1.199352e-03 1.459138e-03 -4.281308e-02)	(-1.127850e-03 1.091686e-03 -4.281340e-02)	(-7.150195e-05 3.674524e-04 3.226971e-07)
0.003275      	(-1.215340e-03 1.477224e-03 -4.302758e-02)	(-1.143988e-03 1.110539e-03 -4.302790e-02)	(-7.135239e-05 3.666849e-04 3.236214e-07)
0.0033        	(-1.232097e-03 1.497325e-03 -4.319491e-02)	(-1.160911e-03 1.131494e-03 -4.319524e-02)	(-7.118601e-05 3.658310e-04 3.252393e-07)
0.003325      	(-1.247860e-03 1.516571e-03 -4.331977e-02)	(-1.176862e-03 1.151706e-03 -4.332010e-02)	(-7.099781e-05 3.648651e-04 3.279284e-07)
0.00335       	(-1.262489e-03 1.534144e-03 -4.342200e-02)	(-1.191702e-03 1.170363e-03 -4.342233e-02)	(-7.078660e-05 3.637809e-04 3.310646e-07)
0.003375      	(-1.278207e-03 1.552326e-03 -4.354064e-02)	(-1.207652e-03 1.189737e-03 -4.354097e-02)	(-7.055453e-05 3.625895e-04 3.342633e-07)
0.0034        	(-1.294168e-03 1.570374e-03 -4.366801e-02)	(-1.223863e-03 1.209062e-03 -4.366835e-02)	(-7.030568e-05 3.613119e-04 3.376915e-07)
0.003425      	(-1.308902e-03 1.587005e-03 -4.377411e-02)	(-1.238857e-03 1.227035e-03 -4.377445e-02)	(-7.004444e-05 3.599706e-04 3.412146e-07)
0.00345       	(-1.325054e-03 1.605156e-03 -4.389148e-02)	(-1.255280e-03 1.246573e-03 -4.389182e-02)	(-6.977411e-05 3.585823e-04 3.446875e-07)
0.003475      	(-1.340897e-03 1.622879e-03 -4.399602e-02)	(-1.271401e-03 1.265723e-03 -4.399637e-02)	(-6.949626e-05 3.571555e-04 3.487124e-07)
0.0035        	(-1.355799e-03 1.639573e-03 -4.407542e-02)	(-1.286588e-03 1.283883e-03 -4.407577e-02)	(-6.921089e-05 3.556900e-04 3.530052e-07)
0.003525      	(-1.371359e-03 1.656725e-03 -4.415869e-02)	(-1.302442e-03 1.302545e-03 -4.415905e-02)	(-6.891683e-05 3.541797e-04 3.573568e-07)
0.00355       	(-1.386685e-03 1.673143e-03 -4.423971e-02)	(-1.318072e-03 1.320527e-03 -4.424007e-02)	(-6.861233e-05 3.526159e-04 3.616579e-07)
0.003575      	(-1.401301e-03 1.688342e-03 -4.431238e-02)	(-1.333005e-03 1.337352e-03 -4.431274e-02)	(-6.829587e-05 3.509907e-04 3.660247e-07)
0.0036        	(-1.416320e-03 1.703610e-03 -4.439335e-02)	(-1.348353e-03 1.354311e-03 -4.439371e-02)	(-6.796639e-05 3.492986e-04 3.694759e-07)
0.003625      	(-1.430583e-03 1.717624e-03 -4.446920e-02)	(-1.362960e-03 1.370087e-03 -4.446957e-02)	(-6.762341e-05 3.475371e-04 3.719021e-07)
0.00365       	(-1.444734e-03 1.731221e-03 -4.454371e-02)	(-1.377467e-03 1.385514e-03 -4.454409e-02)	(-6.726710e-05 3.457071e-04 3.732172e-07)
0.003675      	(-1.460084e-03 1.745863e-03 -4.463556e-02)	(-1.393186e-03 1.402051e-03 -4.463594e-02)	(-6.689802e-05 3.438115e-04 3.734287e-07)
0.0037        	(-1.474504e-03 1.759435e-03 -4.471262e-02)	(-1.407988e-03 1.417581e-03 -4.471299e-02)	(-6.651688e-05 3.418539e-04 3.724991e-07)
0.003725      	(-1.488399e-03 1.772353e-03 -4.477624e-02)	(-1.422275e-03 1.432514e-03 -4.477661e-02)	(-6.612457e-05 3.398389e-04 3.700537e-07)
0.00375       	(-1.502976e-03 1.785889e-03 -4.484465e-02)	(-1.437254e-03 1.448119e-03 -4.484502e-02)	(-6.572187e-05 3.377705e-04 3.663961e-07)
0.003775      	(-1.517209e-03 1.798885e-03 -4.490320e-02)	(-1.451899e-03 1.463233e-03 -4.490357e-02)	(-6.530941e-05 3.356520e-04 3.621059e-07)
0.0038        	(-1.530802e-03 1.811156e-03 -4.494771e-02)	(-1.465914e-03 1.477669e-03 -4.494807e-02)	(-6.488788e-05 3.334869e-04 3.569240e-07)
0.003825      	(-1.545424e-03 1.824534e-03 -4.500349e-02)	(-1.480967e-03 1.493257e-03 -4.500384e-02)	(-6.445781e-05 3.312779e-04 3.506436e-07)
0.00385       	(-1.558962e-03 1.836512e-03 -4.504079e-02)	(-1.494942e-03 1.507485e-03 -4.504113e-02)	(-6.401963e-05 3.290273e-04 3.439022e-07)
0.003875      	(-1.572268e-03 1.848238e-03 -4.507192e-02)	(-1.508694e-03 1.521501e-03 -4.507226e-02)	(-6.357381e-05 3.267374e-04 3.362691e-07)
0.0039        	(-1.586335e-03 1.860549e-03 -4.511173e-02)	(-1.523214e-03 1.536139e-03 -4.511206e-02)	(-6.312073e-05 3.244102e-04 3.281631e-07)
0.003925      	(-1.600052e-03 1.872573e-03 -4.514447e-02)	(-1.537391e-03 1.550525e-03 -4.514479e-02)	(-6.266078e-05 3.220477e-04 3.192313e-07)
0.00395       	(-1.613187e-03 1.883877e-03 -4.516570e-02)	(-1.550992e-03 1.564226e-03 -4.516601e-02)	(-6.219437e-05 3.196519e-04 3.093985e-07)
0.003975      	(-1.626809e-03 1.895497e-03 -4.519305e-02)	(-1.565087e-03 1.578272e-03 -4.519335e-02)	(-6.172182e-05 3.172245e-04 2.992280e-07)
0.004         	(-1.640005e-03 1.906673e-03 -4.521021e-02)	(-1.578762e-03 1.591906e-03 -4.521050e-02)	(-6.124347e-05 3.147672e-04 2.886951e-07)
0.004025      	(-1.652616e-03 1.917152e-03 -4.521706e-02)	(-1.591856e-03 1.604870e-03 -4.521734e-02)	(-6.075968e-05 3.122820e-04 2.776551e-07)
0.00405       	(-1.666262e-03 1.928703e-03 -4.523803e-02)	(-1.605992e-03 1.618933e-03 -4.523829e-02)	(-6.027077e-05 3.097705e-04 2.663963e-07)
0.004075      	(-1.679027e-03 1.939188e-03 -4.524296e-02)	(-1.619250e-03 1.631953e-03 -4.524322e-02)	(-5.977706e-05 3.072344e-04 2.552823e-07)
0.0041        	(-1.692071e-03 1.949995e-03 -4.525088e-02)	(-1.632792e-03 1.645319e-03 -4.525112e-02)	(-5.927894e-05 3.046756e-04 2.443197e-07)
0.004125      	(-1.705118e-03 1.960814e-03 -4.525558e-02)	(-1.646341e-03 1.658719e-03 -4.525581e-02)	(-5.877671e-05 3.020957e-04 2.333331e-07)
0.00415       	(-1.718130e-03 1.971544e-03 -4.525781e-02)	(-1.659860e-03 1.672048e-03 -4.525803e-02)	(-5.827068e-05 2.994963e-04 2.223882e-07)
0.004175      	(-1.730148e-03 1.981232e-03 -4.524369e-02)	(-1.672386e-03 1.684353e-03 -4.524390e-02)	(-5.776117e-05 2.968789e-04 2.114692e-07)
0.0042        	(-1.743449e-03 1.992233e-03 -4.524858e-02)	(-1.686200e-03 1.697988e-03 -4.524878e-02)	(-5.724838e-05 2.942446e-04 2.007698e-07)
0.004225      	(-1.756094e-03 2.002517e-03 -4.524176e-02)	(-1.699362e-03 1.710923e-03 -4.524195e-02)	(-5.673255e-05 2.915947e-04 1.901049e-07)
0.00425       	(-1.767819e-03 2.011799e-03 -4.522017e-02)	(-1.711605e-03 1.722869e-03 -4.522035e-02)	(-5.621392e-05 2.889304e-04 1.797869e-07)
0.004275      	(-1.780801e-03 2.022405e-03 -4.521665e-02)	(-1.725109e-03 1.736152e-03 -4.521682e-02)	(-5.569267e-05 2.862526e-04 1.698327e-07)
0.0043        	(-1.792951e-03 2.032173e-03 -4.519925e-02)	(-1.737782e-03 1.748611e-03 -4.519941e-02)	(-5.516896e-05 2.835622e-04 1.599968e-07)
0.004325      	(-1.804512e-03 2.041252e-03 -4.517406e-02)	(-1.749869e-03 1.760391e-03 -4.517421e-02)	(-5.464300e-05 2.808602e-04 1.505016e-07)
0.00435       	(-1.817162e-03 2.051528e-03 -4.516290e-02)	(-1.763047e-03 1.773381e-03 -4.516304e-02)	(-5.411493e-05 2.781473e-04 1.411945e-07)
0.004375      	(-1.829283e-03 2.061180e-03 -4.514462e-02)	(-1.775699e-03 1.785756e-03 -4.514475e-02)	(-5.358490e-05 2.754245e-04 1.324518e-07)
0.0044        	(-1.840836e-03 2.070399e-03 -4.511702e-02)	(-1.787782e-03 1.797707e-03 -4.511714e-02)	(-5.305312e-05 2.726924e-04 1.234083e-07)
0.004425      	(-1.853301e-03 2.080423e-03 -4.510280e-02)	(-1.800781e-03 1.810470e-03 -4.510291e-02)	(-5.251973e-05 2.699522e-04 1.149004e-07)
0.00445       	(-1.865323e-03 2.090136e-03 -4.508174e-02)	(-1.813338e-03 1.822932e-03 -4.508184e-02)	(-5.198492e-05 2.672046e-04 1.063553e-07)
0.004475      	(-1.876534e-03 2.098949e-03 -4.504847e-02)	(-1.825085e-03 1.834498e-03 -4.504856e-02)	(-5.144889e-05 2.644507e-04 9.782907e-08)
0.0045        	(-1.888429e-03 2.108433e-03 -4.502470e-02)	(-1.837518e-03 1.846742e-03 -4.502479e-02)	(-5.091178e-05 2.616912e-04 8.969666e-08)
0.004525      	(-1.900021e-03 2.117653e-03 -4.499684e-02)	(-1.849648e-03 1.858726e-03 -4.499692e-02)	(-5.037375e-05 2.589270e-04 8.173943e-08)
0.00455       	(-1.910861e-03 2.126062e-03 -4.495765e-02)	(-1.861026e-03 1.869903e-03 -4.495772e-02)	(-4.983496e-05 2.561589e-04 7.404995e-08)
0.004575      	(-1.922909e-03 2.135863e-03 -4.493596e-02)	(-1.873614e-03 1.882475e-03 -4.493603e-02)	(-4.929561e-05 2.533878e-04 6.642719e-08)
0.0046        	(-1.934451e-03 2.145118e-03 -4.490753e-02)	(-1.885695e-03 1.894504e-03 -4.490758e-02)	(-4.875581e-05 2.506144e-04 5.897772e-08)
0.004625      	(-1.945310e-03 2.153656e-03 -4.486883e-02)	(-1.897094e-03 1.905816e-03 -4.486888e-02)	(-4.821577e-05 2.478397e-04 5.165014e-08)
0.00465       	(-1.957092e-03 2.163174e-03 -4.484375e-02)	(-1.909417e-03 1.918109e-03 -4.484380e-02)	(-4.767562e-05 2.450644e-04 4.454473e-08)
0.004675      	(-1.968257e-03 2.172125e-03 -4.480994e-02)	(-1.921122e-03 1.929836e-03 -4.480998e-02)	(-4.713545e-05 2.422890e-04 3.747481e-08)
0.0047        	(-1.978954e-03 2.180542e-03 -4.476923e-02)	(-1.932358e-03 1.941028e-03 -4.476927e-02)	(-4.659548e-05 2.395145e-04 3.057346e-08)
0.004725      	(-1.990191e-03 2.189566e-03 -4.473687e-02)	(-1.944136e-03 1.952825e-03 -4.473689e-02)	(-4.605580e-05 2.367414e-04 2.384690e-08)
0.00475       	(-2.000996e-03 2.198098e-03 -4.469805e-02)	(-1.955480e-03 1.964128e-03 -4.469807e-02)	(-4.551650e-05 2.339704e-04 1.749695e-08)
0.004775      	(-2.011681e-03 2.206658e-03 -4.465844e-02)	(-1.966704e-03 1.975455e-03 -4.465845e-02)	(-4.497781e-05 2.312024e-04 1.101932e-08)
0.0048        	(-2.022765e-03 2.215537e-03 -4.462498e-02)	(-1.978325e-03 1.987099e-03 -4.462499e-02)	(-4.443980e-05 2.284378e-04 4.902441e-09)
0.004825      	(-2.033386e-03 2.223998e-03 -4.458582e-02)	(-1.989484e-03 1.998321e-03 -4.458581e-02)	(-4.390255e-05 2.256772e-04 -9.830408e-10)
0.00485       	(-2.043764e-03 2.232219e-03 -4.454348e-02)	(-2.000398e-03 2.009297e-03 -4.454348e-02)	(-4.336622e-05 2.229213e-04 -6.689187e-09)
0.004875      	(-2.054732e-03 2.241098e-03 -4.450983e-02)	(-2.011901e-03 2.020927e-03 -4.450982e-02)	(-4.283090e-05 2.201705e-04 -1.211771e-08)
0.0049        	(-2.065314e-03 2.249575e-03 -4.447156e-02)	(-2.023017e-03 2.032150e-03 -4.447154e-02)	(-4.229665e-05 2.174252e-04 -1.733422e-08)
0.004925      	(-2.075198e-03 2.257341e-03 -4.442345e-02)	(-2.033434e-03 2.042655e-03 -4.442343e-02)	(-4.176365e-05 2.146863e-04 -2.234398e-08)
0.00495       	(-2.086149e-03 2.266219e-03 -4.439211e-02)	(-2.044917e-03 2.054265e-03 -4.439208e-02)	(-4.123195e-05 2.119541e-04 -2.710615e-08)
0.004975      	(-2.096312e-03 2.274281e-03 -4.434988e-02)	(-2.055610e-03 2.065052e-03 -4.434985e-02)	(-4.070165e-05 2.092290e-04 -3.152031e-08)
0.005         	(-2.106335e-03 2.282200e-03 -4.430645e-02)	(-2.066163e-03 2.075688e-03 -4.430642e-02)	(-4.017281e-05 2.065115e-04 -3.560068e-08)
0.005025      	(-2.116754e-03 2.290563e-03 -4.426989e-02)	(-2.077109e-03 2.086761e-03 -4.426985e-02)	(-3.964551e-05 2.038020e-04 -3.932483e-08)
0.00505       	(-2.127251e-03 2.299032e-03 -4.423591e-02)	(-2.088131e-03 2.097931e-03 -4.423586e-02)	(-3.911986e-05 2.011009e-04 -4.277582e-08)
0.005075      	(-2.136719e-03 2.306348e-03 -4.418677e-02)	(-2.098123e-03 2.107940e-03 -4.418672e-02)	(-3.859593e-05 1.984087e-04 -4.565485e-08)
0.0051        	(-2.147027e-03 2.314633e-03 -4.415133e-02)	(-2.108953e-03 2.118907e-03 -4.415128e-02)	(-3.807381e-05 1.957258e-04 -4.817453e-08)
0.005125      	(-2.156680e-03 2.322177e-03 -4.410796e-02)	(-2.119127e-03 2.129124e-03 -4.410791e-02)	(-3.755359e-05 1.930527e-04 -5.021579e-08)
0.00515       	(-2.166152e-03 2.329534e-03 -4.406238e-02)	(-2.129117e-03 2.139144e-03 -4.406233e-02)	(-3.703533e-05 1.903898e-04 -5.178463e-08)
0.005175      	(-2.176452e-03 2.337792e-03 -4.403050e-02)	(-2.139933e-03 2.150054e-03 -4.403045e-02)	(-3.651913e-05 1.877375e-04 -5.293688e-08)