0.0001 48
0.0002 45
0.0003 56
0.0004 49
0.0005 45
0.0006 51
0.0007 50
0.0008 45
0.0009 52
0.001 47
0.0011 48
0.0012 44
0.0013 51
0.0014 60
0.0015 55
0.0016 51
0.0017 46
0.0018 76
0.0019 59
0.002 49
0.0021 58
0.0022 57
0.0023 44
0.0024 52
0.0025 60
0.0026 48
0.0027 58
0.0028 53
0.0029 58
0.003 49
0.0031 45
0.0032 58
0.0033 60
0.0034 42
0.0035 42
0.0036 59
0.0037 45
0.0038 46
0.0039 49
0.004 44
0.0041 44
0.0042 66
0.0043 49
0.0044 48
0.0045 44
0.0046 56
0.0047 62
0.0048 52
0.0049 46
0.005 50
0.0051 62
0.0052 43
0.0053 50
0.0054 50
0.0055 46
0.0056 52
0.0057 41
0.0058 50
0.0059 53
0.006 55
0.0061 58
0.0062 58
0.0063 55
0.0064 49
0.0065 51
0.0066 58
0.0067 55
0.0068 45
0.0069 49
0.007 45
0.0071 60
0.0072 43
0.0073 44
0.0074 51
0.0075 53
0.0076 46
0.0077 46
0.0078 48
0.0079 36
0.008 44
0.0081 56
0.0082 53
0.0083 41
0.0084 48
0.0085 40
0.0086 47
0.0087 52
0.0088 46
0.0089 50
0.009 41
0.0091 38
0.0092 53
0.0093 42
0.0094 41
0.0095 40
0.0096 46
0.0097 41
0.0098 37
0.0099 36
0.01 42
0.0101 43
0.0102 43
0.0103 37
0.0104 43
0.0105 44
0.0106 50
0.0107 46
0.0108 46
0.0109 61
0.011 53
0.0111 41
0.0112 56
0.0113 64
0.0114 44
0.0115 55
0.0116 52
0.0117 40
0.0118 44
0.0119 43
0.012 41
0.0121 42
0.0122 38
0.0123 39
0.0124 46
0.0125 39
0.0126 42
0.0127 44
0.0128 37
0.0129 40
0.013 42
0.0131 40
0.0132 44
0.0133 50
0.0134 56
0.0135 44
0.0136 59
0.0137 43
0.0138 48
0.0139 49
0.014 59
0.0141 41
0.0142 49
0.0143 45
0.0144 36
0.0145 40
0.0146 40
0.0147 38
0.0148 44
0.0149 41
0.015 60
0.0151 46
0.0152 54
0.0153 55
0.0154 53
0.0155 59
0.0156 60
0.0157 74
0.0158 53
0.0159 79
0.016 59
0.0161 58
0.0162 56
0.0163 64
0.0164 52
0.0165 51
0.0166 61
0.0167 45
0.0168 46
0.0169 36
0.017 40
0.0171 37
0.0172 44
0.0173 41
0.0174 41
0.0175 45
0.0176 61
0.0177 52
0.0178 36
0.0179 37
0.018 43
0.0181 45
0.0182 55
0.0183 35
0.0184 37
0.0185 35
0.0186 45
0.0187 37
0.0188 44
0.0189 35
0.019 41
0.0191 35
0.0192 48
0.0193 43
0.0194 44
0.0195 46
0.0196 53
0.0197 42
0.0198 37
0.0199 38
