# Time Dx Dy Dz magD
5e-05 0 -6.90757e-14 -9.77498e-16 6.90826e-14
5e-05 0 -6.90757e-14 -9.77498e-16 6.90826e-14
0.0001 0 -4.65158e-15 -5.54032e-15 7.23411e-15
0.0001 0 -4.65158e-15 -5.54032e-15 7.23411e-15
0.00015 0 1.71664e-14 -1.88326e-14 2.54824e-14
0.00015 0 1.71664e-14 -1.88326e-14 2.54824e-14
0.0002 0 2.89357e-13 -4.34508e-14 2.92601e-13
0.0002 0 2.89357e-13 -4.34508e-14 2.92601e-13
0.00025 0 1.391e-12 -9.55216e-14 1.39427e-12
0.00025 0 1.391e-12 -9.55216e-14 1.39427e-12
0.0003 0 5.16501e-12 -2.57748e-13 5.17143e-12
0.0003 0 5.16501e-12 -2.57748e-13 5.17143e-12
0.00035 0 1.71616e-11 -8.16681e-13 1.7181e-11
0.00035 0 1.71616e-11 -8.16681e-13 1.7181e-11
0.0004 0 5.15991e-11 -2.60546e-12 5.16648e-11
0.0004 0 5.15991e-11 -2.60546e-12 5.16648e-11
0.00045 0 1.45639e-10 -7.8081e-12 1.45849e-10
0.00045 0 1.45639e-10 -7.8081e-12 1.45849e-10
0.0005 0 3.77365e-10 -2.16349e-11 3.77985e-10
0.0005 0 3.77365e-10 -2.16349e-11 3.77985e-10
0.00055 0 8.91757e-10 -5.48862e-11 8.93444e-10
0.00055 0 8.91757e-10 -5.48862e-11 8.93444e-10
0.0006 0 1.91521e-09 -1.26443e-10 1.91938e-09
0.0006 0 1.91521e-09 -1.26443e-10 1.91938e-09
0.00065 0 3.73672e-09 -2.63021e-10 3.74597e-09
0.00065 0 3.73672e-09 -2.63021e-10 3.74597e-09
0.0007 0 6.60779e-09 -4.92081e-10 6.62609e-09
0.0007 0 6.60779e-09 -4.92081e-10 6.62609e-09
0.00075 0 1.05616e-08 -8.24529e-10 1.05937e-08
0.00075 0 1.05616e-08 -8.24529e-10 1.05937e-08
0.0008 0 1.52097e-08 -1.23042e-09 1.52594e-08
0.0008 0 1.52097e-08 -1.23042e-09 1.52594e-08
0.00085 0 1.963e-08 -1.62319e-09 1.9697e-08
0.00085 0 1.963e-08 -1.62319e-09 1.9697e-08
0.0009 0 2.25619e-08 -1.87809e-09 2.26399e-08
0.0009 0 2.25619e-08 -1.87809e-09 2.26399e-08
0.00095 0 2.2971e-08 -1.90639e-09 2.305e-08
0.00095 0 2.2971e-08 -1.90639e-09 2.305e-08
0.001 0 2.10116e-08 -1.78066e-09 2.1087e-08
0.001 0 2.10116e-08 -1.78066e-09 2.1087e-08
0.00105 0 1.83662e-08 -1.85291e-09 1.84595e-08
0.00105 0 1.83662e-08 -1.85291e-09 1.84595e-08
0.0011 0 1.83775e-08 -2.78464e-09 1.85873e-08
0.0011 0 1.83775e-08 -2.78464e-09 1.85873e-08
0.00115 0 2.47866e-08 -5.45137e-09 2.5379e-08
0.00115 0 2.47866e-08 -5.45137e-09 2.5379e-08
0.0012 0 3.98303e-08 -1.07968e-08 4.12677e-08
0.0012 0 3.98303e-08 -1.07968e-08 4.12677e-08
0.00125 0 6.23412e-08 -1.98302e-08 6.54192e-08
0.00125 0 6.23412e-08 -1.98302e-08 6.54192e-08
0.0013 0 8.74491e-08 -3.3983e-08 9.38199e-08
0.0013 0 8.74491e-08 -3.3983e-08 9.38199e-08
0.00135 0 1.08362e-07 -5.59058e-08 1.21934e-07
0.00135 0 1.08362e-07 -5.59058e-08 1.21934e-07
0.0014 0 1.19749e-07 -9.05142e-08 1.50109e-07
0.0014 0 1.19749e-07 -9.05142e-08 1.50109e-07
0.00145 0 1.21195e-07 -1.4585e-07 1.89632e-07
0.00145 0 1.21195e-07 -1.4585e-07 1.89632e-07
0.0015 0 1.18843e-07 -2.33292e-07 2.61818e-07
0.0015 0 1.18843e-07 -2.33292e-07 2.61818e-07
0.00155 0 1.22481e-07 -3.6686e-07 3.86766e-07
0.00155 0 1.22481e-07 -3.6686e-07 3.86766e-07
0.0016 0 1.42295e-07 -5.61914e-07 5.79651e-07
0.0016 0 1.42295e-07 -5.61914e-07 5.79651e-07
0.00165 0 1.83605e-07 -8.33756e-07 8.53733e-07
0.00165 0 1.83605e-07 -8.33756e-07 8.53733e-07
0.0017 0 2.43721e-07 -1.19653e-06 1.2211e-06
0.0017 0 2.43721e-07 -1.19653e-06 1.2211e-06
0.00175 0 3.12785e-07 -1.66246e-06 1.69163e-06
0.00175 0 3.12785e-07 -1.66246e-06 1.69163e-06
0.0018 0 3.78201e-07 -2.24112e-06 2.2728e-06
0.0018 0 3.78201e-07 -2.24112e-06 2.2728e-06
0.00185 0 4.30386e-07 -2.93843e-06 2.96978e-06
0.00185 0 4.30386e-07 -2.93843e-06 2.96978e-06
0.0019 0 4.67105e-07 -3.75545e-06 3.78439e-06
0.0019 0 4.67105e-07 -3.75545e-06 3.78439e-06
0.00195 0 4.94413e-07 -4.68732e-06 4.71332e-06
0.00195 0 4.94413e-07 -4.68732e-06 4.71332e-06
0.002 0 5.23885e-07 -5.72326e-06 5.74718e-06
0.002 0 5.23885e-07 -5.72326e-06 5.74718e-06
0.00205 0 5.67321e-07 -6.84794e-06 6.8714e-06
0.00205 0 5.67321e-07 -6.84794e-06 6.8714e-06
0.0021 0 6.31798e-07 -8.0442e-06 8.06897e-06
0.0021 0 6.31798e-07 -8.0442e-06 8.06897e-06
0.00215 0 7.17076e-07 -9.29627e-06 9.32388e-06
0.00215 0 7.17076e-07 -9.29627e-06 9.32388e-06
0.0022 0 8.1648e-07 -1.05923e-05 1.06238e-05
0.0022 0 8.1648e-07 -1.05923e-05 1.06238e-05
0.00225 0 9.20392e-07 -1.19258e-05 1.19613e-05
0.00225 0 9.20392e-07 -1.19258e-05 1.19613e-05
0.0023 0 1.0206e-06 -1.32947e-05 1.33338e-05
0.0023 0 1.0206e-06 -1.32947e-05 1.33338e-05
0.00235 0 1.11362e-06 -1.46999e-05 1.4742e-05
0.00235 0 1.11362e-06 -1.46999e-05 1.4742e-05
0.0024 0 1.2019e-06 -1.61431e-05 1.61878e-05
0.0024 0 1.2019e-06 -1.61431e-05 1.61878e-05
0.00245 0 1.29249e-06 -1.76248e-05 1.76721e-05
0.00245 0 1.29249e-06 -1.76248e-05 1.76721e-05
0.0025 0 1.3943e-06 -1.91434e-05 1.91941e-05
0.0025 0 1.3943e-06 -1.91434e-05 1.91941e-05
0.00255 0 1.51484e-06 -2.06953e-05 2.07507e-05
0.00255 0 1.51484e-06 -2.06953e-05 2.07507e-05
0.0026 0 1.65798e-06 -2.2276e-05 2.23376e-05
0.0026 0 1.65798e-06 -2.2276e-05 2.23376e-05
0.00265 0 1.8232e-06 -2.38806e-05 2.39501e-05
0.00265 0 1.8232e-06 -2.38806e-05 2.39501e-05
0.0027 0 2.00644e-06 -2.55052e-05 2.5584e-05
0.0027 0 2.00644e-06 -2.55052e-05 2.5584e-05
0.00275 0 2.20214e-06 -2.71467e-05 2.72359e-05
0.00275 0 2.20214e-06 -2.71467e-05 2.72359e-05
0.0028 0 2.40549e-06 -2.88034e-05 2.89036e-05
0.0028 0 2.40549e-06 -2.88034e-05 2.89036e-05
0.00285 0 2.61427e-06 -3.0474e-05 3.05859e-05
0.00285 0 2.61427e-06 -3.0474e-05 3.05859e-05
0.0029 0 2.82979e-06 -3.21575e-05 3.22818e-05
0.0029 0 2.82979e-06 -3.21575e-05 3.22818e-05
0.00295 0 3.0566e-06 -3.38524e-05 3.39901e-05
0.00295 0 3.0566e-06 -3.38524e-05 3.39901e-05
0.003 0 3.30132e-06 -3.55567e-05 3.57096e-05
0.003 0 3.30132e-06 -3.55567e-05 3.57096e-05
0.00305 0 3.57099e-06 -3.72682e-05 3.74389e-05
0.00305 0 3.57099e-06 -3.72682e-05 3.74389e-05
0.0031 0 3.87145e-06 -3.89848e-05 3.91765e-05
0.0031 0 3.87145e-06 -3.89848e-05 3.91765e-05
0.00315 0 4.20639e-06 -4.07045e-05 4.09213e-05
0.00315 0 4.20639e-06 -4.07045e-05 4.09213e-05
0.0032 0 4.5772e-06 -4.24259e-05 4.26721e-05
0.0032 0 4.5772e-06 -4.24259e-05 4.26721e-05
0.00325 0 4.98363e-06 -4.41475e-05 4.44279e-05
0.00325 0 4.98363e-06 -4.41475e-05 4.44279e-05
0.0033 0 5.42489e-06 -4.58676e-05 4.61873e-05
0.0033 0 5.42489e-06 -4.58676e-05 4.61873e-05
0.00335 0 5.90061e-06 -4.75842e-05 4.79487e-05
0.00335 0 5.90061e-06 -4.75842e-05 4.79487e-05
0.0034 0 6.41146e-06 -4.92941e-05 4.97093e-05
0.0034 0 6.41146e-06 -4.92941e-05 4.97093e-05
0.00345 0 6.95888e-06 -5.09935e-05 5.14662e-05
0.00345 0 6.95888e-06 -5.09935e-05 5.14662e-05
0.0035 0 7.54414e-06 -5.2678e-05 5.32155e-05
0.0035 0 7.54414e-06 -5.2678e-05 5.32155e-05
0.00355 0 8.16689e-06 -5.43432e-05 5.49534e-05
0.00355 0 8.16689e-06 -5.43432e-05 5.49534e-05
0.0036 0 8.82373e-06 -5.59848e-05 5.66758e-05
0.0036 0 8.82373e-06 -5.59848e-05 5.66758e-05
0.00365 0 9.50719e-06 -5.75997e-05 5.8379e-05
0.00365 0 9.50719e-06 -5.75997e-05 5.8379e-05
0.0037 0 1.02057e-05 -5.91862e-05 6.00597e-05
0.0037 0 1.02057e-05 -5.91862e-05 6.00597e-05
0.00375 0 1.09044e-05 -6.07445e-05 6.17155e-05
0.00375 0 1.09044e-05 -6.07445e-05 6.17155e-05
0.0038 0 1.15873e-05 -6.22769e-05 6.33457e-05
0.0038 0 1.15873e-05 -6.22769e-05 6.33457e-05
0.00385 0 1.22402e-05 -6.37882e-05 6.49519e-05
0.00385 0 1.22402e-05 -6.37882e-05 6.49519e-05
0.0039 0 1.28531e-05 -6.52858e-05 6.6539e-05
0.0039 0 1.28531e-05 -6.52858e-05 6.6539e-05
0.00395 0 1.34228e-05 -6.67793e-05 6.81149e-05
0.00395 0 1.34228e-05 -6.67793e-05 6.81149e-05
0.004 0 1.39543e-05 -6.82799e-05 6.96912e-05
0.004 0 1.39543e-05 -6.82799e-05 6.96912e-05
0.00405 0 1.4461e-05 -6.97992e-05 7.12815e-05
0.00405 0 1.4461e-05 -6.97992e-05 7.12815e-05
0.0041 0 1.49645e-05 -7.1348e-05 7.29005e-05
0.0041 0 1.49645e-05 -7.1348e-05 7.29005e-05
0.00415 0 1.54942e-05 -7.29344e-05 7.4562e-05
0.00415 0 1.54942e-05 -7.29344e-05 7.4562e-05
0.0042 0 1.60874e-05 -7.45624e-05 7.62782e-05
0.0042 0 1.60874e-05 -7.45624e-05 7.62782e-05
0.00425 0 1.67893e-05 -7.6231e-05 7.8058e-05
0.00425 0 1.67893e-05 -7.6231e-05 7.8058e-05
0.0043 0 1.76513e-05 -7.79325e-05 7.99064e-05
0.0043 0 1.76513e-05 -7.79325e-05 7.99064e-05
0.00435 0 1.87271e-05 -7.96516e-05 8.18235e-05
0.00435 0 1.87271e-05 -7.96516e-05 8.18235e-05
0.0044 0 2.00649e-05 -8.13648e-05 8.38023e-05
0.0044 0 2.00649e-05 -8.13648e-05 8.38023e-05
0.00445 0 2.16993e-05 -8.30391e-05 8.58275e-05
0.00445 0 2.16993e-05 -8.30391e-05 8.58275e-05
0.0045 0 2.36426e-05 -8.46334e-05 8.78736e-05
0.0045 0 2.36426e-05 -8.46334e-05 8.78736e-05
0.00455 0 2.58813e-05 -8.61001e-05 8.99059e-05
0.00455 0 2.58813e-05 -8.61001e-05 8.99059e-05
0.0046 0 2.83778e-05 -8.73893e-05 9.18814e-05
0.0046 0 2.83778e-05 -8.73893e-05 9.18814e-05
0.00465 0 3.10767e-05 -8.84529e-05 9.37533e-05
0.00465 0 3.10767e-05 -8.84529e-05 9.37533e-05
0.0047 0 3.39133e-05 -8.92489e-05 9.5475e-05
0.0047 0 3.39133e-05 -8.92489e-05 9.5475e-05
0.00475 0 3.68216e-05 -8.97441e-05 9.70043e-05
0.00475 0 3.68216e-05 -8.97441e-05 9.70043e-05
0.0048 0 3.97388e-05 -8.99168e-05 9.83066e-05
0.0048 0 3.97388e-05 -8.99168e-05 9.83066e-05
0.00485 0 4.26062e-05 -8.9757e-05 9.93559e-05
0.00485 0 4.26062e-05 -8.9757e-05 9.93559e-05
0.0049 0 4.53699e-05 -8.92673e-05 0.000100135
0.0049 0 4.53699e-05 -8.92673e-05 0.000100135
0.00495 0 4.79812e-05 -8.84628e-05 0.000100637
0.00495 0 4.79812e-05 -8.84628e-05 0.000100637
0.005 0 5.03998e-05 -8.73704e-05 0.000100865
0.005 0 5.03998e-05 -8.73704e-05 0.000100865
0.00505 0 5.25992e-05 -8.6026e-05 0.000100832
0.00505 0 5.25992e-05 -8.6026e-05 0.000100832
0.0051 0 5.45714e-05 -8.44709e-05 0.000100565
0.0051 0 5.45714e-05 -8.44709e-05 0.000100565
0.00515 0 5.63287e-05 -8.27472e-05 0.0001001
0.00515 0 5.63287e-05 -8.27472e-05 0.0001001
0.0052 0 5.79024e-05 -8.08931e-05 9.94806e-05
0.0052 0 5.79024e-05 -8.08931e-05 9.94806e-05
0.00525 0 5.9336e-05 -7.89403e-05 9.87539e-05
0.00525 0 5.9336e-05 -7.89403e-05 9.87539e-05
0.0053 0 6.06762e-05 -7.69126e-05 9.7965e-05
0.0053 0 6.06762e-05 -7.69126e-05 9.7965e-05
0.00535 0 6.1965e-05 -7.48274e-05 9.71535e-05
0.00535 0 6.1965e-05 -7.48274e-05 9.71535e-05
0.0054 0 6.32341e-05 -7.26972e-05 9.63505e-05
0.0054 0 6.32341e-05 -7.26972e-05 9.63505e-05
0.00545 0 6.45037e-05 -7.05321e-05 9.55799e-05
0.00545 0 6.45037e-05 -7.05321e-05 9.55799e-05
0.0055 0 6.57859e-05 -6.83412e-05 9.48594e-05
0.0055 0 6.57859e-05 -6.83412e-05 9.48594e-05
0.00555 0 6.709e-05 -6.6133e-05 9.42053e-05
0.00555 0 6.709e-05 -6.6133e-05 9.42053e-05
0.0056 0 6.84287e-05 -6.39149e-05 9.36355e-05
0.0056 0 6.84287e-05 -6.39149e-05 9.36355e-05
0.00565 0 6.98224e-05 -6.16922e-05 9.31724e-05
0.00565 0 6.98224e-05 -6.16922e-05 9.31724e-05
0.0057 0 7.13002e-05 -5.9467e-05 9.28442e-05
0.0057 0 7.13002e-05 -5.9467e-05 9.28442e-05
0.00575 0 7.28982e-05 -5.72373e-05 9.26836e-05
0.00575 0 7.28982e-05 -5.72373e-05 9.26836e-05
0.0058 0 7.46545e-05 -5.49967e-05 9.2725e-05
0.0058 0 7.46545e-05 -5.49967e-05 9.2725e-05
0.00585 0 7.66037e-05 -5.27354e-05 9.30008e-05
0.00585 0 7.66037e-05 -5.27354e-05 9.30008e-05
0.0059 0 7.87712e-05 -5.0441e-05 9.35371e-05
0.0059 0 7.87712e-05 -5.0441e-05 9.35371e-05
0.00595 0 8.11698e-05 -4.81002e-05 9.43513e-05
0.00595 0 8.11698e-05 -4.81002e-05 9.43513e-05
0.006 0 8.37983e-05 -4.57006e-05 9.545e-05
0.006 0 8.37983e-05 -4.57006e-05 9.545e-05
0.00605 0 8.66432e-05 -4.32316e-05 9.68298e-05
0.00605 0 8.66432e-05 -4.32316e-05 9.68298e-05
0.0061 0 8.96818e-05 -4.06853e-05 9.8479e-05
0.0061 0 8.96818e-05 -4.06853e-05 9.8479e-05
0.00615 0 9.28862e-05 -3.80561e-05 0.00010038
0.00615 0 9.28862e-05 -3.80561e-05 0.00010038
0.0062 0 9.62272e-05 -3.53407e-05 0.000102512
0.0062 0 9.62272e-05 -3.53407e-05 0.000102512
0.00625 0 9.96768e-05 -3.25374e-05 0.000104853
0.00625 0 9.96768e-05 -3.25374e-05 0.000104853
0.0063 0 0.000103209 -2.96452e-05 0.000107383
0.0063 0 0.000103209 -2.96452e-05 0.000107383
0.00635 0 0.000106802 -2.66641e-05 0.00011008
0.00635 0 0.000106802 -2.66641e-05 0.00011008
0.0064 0 0.000110432 -2.35945e-05 0.000112925
0.0064 0 0.000110432 -2.35945e-05 0.000112925
0.00645 0 0.000114078 -2.04375e-05 0.000115894
0.00645 0 0.000114078 -2.04375e-05 0.000115894
0.0065 0 0.000117716 -1.71944e-05 0.000118966
0.0065 0 0.000117716 -1.71944e-05 0.000118966
0.00655 0 0.000121323 -1.38676e-05 0.000122113
0.00655 0 0.000121323 -1.38676e-05 0.000122113
0.0066 0 0.000124872 -1.04596e-05 0.000125309
0.0066 0 0.000124872 -1.04596e-05 0.000125309
0.00665 0 0.000128339 -6.97349e-06 0.000128528
0.00665 0 0.000128339 -6.97349e-06 0.000128528
0.0067 0 0.000131702 -3.41279e-06 0.000131747
0.0067 0 0.000131702 -3.41279e-06 0.000131747
0.00675 0 0.000134942 2.19116e-07 0.000134942
0.00675 0 0.000134942 2.19116e-07 0.000134942
0.0068 0 0.000138042 3.91912e-06 0.000138097
0.0068 0 0.000138042 3.91912e-06 0.000138097
0.00685 0 0.000140988 7.68487e-06 0.000141197
0.00685 0 0.000140988 7.68487e-06 0.000141197
0.0069 0 0.000143769 1.15152e-05 0.000144229
0.0069 0 0.000143769 1.15152e-05 0.000144229
0.00695 0 0.00014637 1.54102e-05 0.000147179
0.00695 0 0.00014637 1.54102e-05 0.000147179
0.007 0 0.000148776 1.93716e-05 0.000150032
0.007 0 0.000148776 1.93716e-05 0.000150032
0.00705 0 0.000150964 2.34022e-05 0.000152767
0.00705 0 0.000150964 2.34022e-05 0.000152767
0.0071 0 0.000152903 2.75047e-05 0.000155357
0.0071 0 0.000152903 2.75047e-05 0.000155357
0.00715 0 0.000154555 3.16811e-05 0.000157769
0.00715 0 0.000154555 3.16811e-05 0.000157769
0.0072 0 0.000155878 3.5931e-05 0.000159965
0.0072 0 0.000155878 3.5931e-05 0.000159965
0.00725 0 0.000156814 4.02491e-05 0.000161897
0.00725 0 0.000156814 4.02491e-05 0.000161897
0.0073 0 0.000157304 4.46229e-05 0.000163511
0.0073 0 0.000157304 4.46229e-05 0.000163511
0.00735 0 0.000157293 4.90316e-05 0.000164758
0.00735 0 0.000157293 4.90316e-05 0.000164758
0.0074 0 0.000156739 5.34471e-05 0.000165601
0.0074 0 0.000156739 5.34471e-05 0.000165601
0.00745 0 0.000155604 5.78332e-05 0.000166004
0.00745 0 0.000155604 5.78332e-05 0.000166004
0.0075 0 0.000153875 6.21477e-05 0.000165952
0.0075 0 0.000153875 6.21477e-05 0.000165952
0.00755 0 0.000151563 6.63446e-05 0.000165448
0.00755 0 0.000151563 6.63446e-05 0.000165448
0.0076 0 0.000148693 7.03782e-05 0.000164507
0.0076 0 0.000148693 7.03782e-05 0.000164507
0.00765 0 0.000145307 7.42055e-05 0.000163158
0.00765 0 0.000145307 7.42055e-05 0.000163158
0.0077 0 0.00014146 7.77871e-05 0.000161437
0.0077 0 0.00014146 7.77871e-05 0.000161437
0.00775 0 0.000137214 8.10881e-05 0.000159383
0.00775 0 0.000137214 8.10881e-05 0.000159383
0.0078 0 0.00013264 8.40795e-05 0.000157044
0.0078 0 0.00013264 8.40795e-05 0.000157044
0.00785 0 0.000127816 8.67394e-05 0.000154469
0.00785 0 0.000127816 8.67394e-05 0.000154469
0.0079 0 0.00012282 8.90539e-05 0.000151708
0.0079 0 0.00012282 8.90539e-05 0.000151708
0.00795 0 0.000117731 9.10178e-05 0.000148811
0.00795 0 0.000117731 9.10178e-05 0.000148811
0.008 0 0.000112619 9.26348e-05 0.000145822
0.008 0 0.000112619 9.26348e-05 0.000145822
0.00805 0 0.000107542 9.39179e-05 0.000142779
0.00805 0 0.000107542 9.39179e-05 0.000142779
0.0081 0 0.00010254 9.4887e-05 0.000139707
0.0081 0 0.00010254 9.4887e-05 0.000139707
0.00815 0 9.76337e-05 9.55668e-05 0.000136621
0.00815 0 9.76337e-05 9.55668e-05 0.000136621
0.0082 0 9.28286e-05 9.59832e-05 0.000133529
0.0082 0 9.28286e-05 9.59832e-05 0.000133529
0.00825 0 8.81185e-05 9.61621e-05 0.00013043
0.00825 0 8.81185e-05 9.61621e-05 0.00013043
0.0083 0 8.3492e-05 9.61276e-05 0.000127324
0.0083 0 8.3492e-05 9.61276e-05 0.000127324
0.00835 0 7.89383e-05 9.59026e-05 0.000124212
0.00835 0 7.89383e-05 9.59026e-05 0.000124212
0.0084 0 7.4451e-05 9.55091e-05 0.000121099
0.0084 0 7.4451e-05 9.55091e-05 0.000121099
0.00845 0 7.00291e-05 9.49695e-05 0.000117997
0.00845 0 7.00291e-05 9.49695e-05 0.000117997
0.0085 0 6.56759e-05 9.43059e-05 0.000114921
0.0085 0 6.56759e-05 9.43059e-05 0.000114921
0.00855 0 6.13961e-05 9.35404e-05 0.00011189
0.00855 0 6.13961e-05 9.35404e-05 0.00011189
0.0086 0 5.71927e-05 9.26935e-05 0.000108918
0.0086 0 5.71927e-05 9.26935e-05 0.000108918
0.00865 0 5.30644e-05 9.17828e-05 0.000106018
0.00865 0 5.30644e-05 9.17828e-05 0.000106018
0.0087 0 4.90042e-05 9.08213e-05 0.000103198
0.0087 0 4.90042e-05 9.08213e-05 0.000103198
0.00875 0 4.50002e-05 8.98172e-05 0.00010046
0.00875 0 4.50002e-05 8.98172e-05 0.00010046
0.0088 0 4.10371e-05 8.87731e-05 9.77993e-05
0.0088 0 4.10371e-05 8.87731e-05 9.77993e-05
0.00885 0 3.70986e-05 8.76865e-05 9.52114e-05
0.00885 0 3.70986e-05 8.76865e-05 9.52114e-05
0.0089 0 3.31701e-05 8.65512e-05 9.26896e-05
0.0089 0 3.31701e-05 8.65512e-05 9.26896e-05
0.00895 0 2.92411e-05 8.53588e-05 9.02284e-05
0.00895 0 2.92411e-05 8.53588e-05 9.02284e-05
0.009 0 2.53067e-05 8.40997e-05 8.78247e-05
0.009 0 2.53067e-05 8.40997e-05 8.78247e-05
0.00905 0 2.13676e-05 8.27652e-05 8.54789e-05
0.00905 0 2.13676e-05 8.27652e-05 8.54789e-05
0.0091 0 1.743e-05 8.13485e-05 8.31949e-05
0.0091 0 1.743e-05 8.13485e-05 8.31949e-05
0.00915 0 1.35052e-05 7.98459e-05 8.098e-05
0.00915 0 1.35052e-05 7.98459e-05 8.098e-05
0.0092 0 9.60723e-06 7.82569e-05 7.88444e-05
0.0092 0 9.60723e-06 7.82569e-05 7.88444e-05
0.00925 0 5.75079e-06 7.65842e-05 7.67998e-05
0.00925 0 5.75079e-06 7.65842e-05 7.67998e-05
0.0093 0 1.95003e-06 7.48329e-05 7.48584e-05
0.0093 0 1.95003e-06 7.48329e-05 7.48584e-05
0.00935 0 -1.78249e-06 7.301e-05 7.30317e-05
0.00935 0 -1.78249e-06 7.301e-05 7.30317e-05
0.0094 0 -5.43611e-06 7.11226e-05 7.133e-05
0.0094 0 -5.43611e-06 7.11226e-05 7.133e-05
0.00945 0 -9.00447e-06 6.91772e-05 6.97608e-05
0.00945 0 -9.00447e-06 6.91772e-05 6.97608e-05
0.0095 0 -1.24825e-05 6.71789e-05 6.83288e-05
0.0095 0 -1.24825e-05 6.71789e-05 6.83288e-05
0.00955 0 -1.58655e-05 6.51315e-05 6.7036e-05
0.00955 0 -1.58655e-05 6.51315e-05 6.7036e-05
0.0096 0 -1.91502e-05 6.30376e-05 6.58822e-05
0.0096 0 -1.91502e-05 6.30376e-05 6.58822e-05
0.00965 0 -2.23334e-05 6.08988e-05 6.48649e-05
0.00965 0 -2.23334e-05 6.08988e-05 6.48649e-05
0.0097 0 -2.54118e-05 5.87164e-05 6.39795e-05
0.0097 0 -2.54118e-05 5.87164e-05 6.39795e-05
0.00975 0 -2.83815e-05 5.64909e-05 6.32197e-05
0.00975 0 -2.83815e-05 5.64909e-05 6.32197e-05
0.0098 0 -3.12396e-05 5.42224e-05 6.25778e-05
0.0098 0 -3.12396e-05 5.42224e-05 6.25778e-05
0.00985 0 -3.39835e-05 5.19106e-05 6.2045e-05
0.00985 0 -3.39835e-05 5.19106e-05 6.2045e-05
0.0099 0 -3.66097e-05 4.95553e-05 6.16116e-05
0.0099 0 -3.66097e-05 4.95553e-05 6.16116e-05
0.00995 0 -3.91147e-05 4.71564e-05 6.12674e-05
0.00995 0 -3.91147e-05 4.71564e-05 6.12674e-05
0.01 0 -4.14947e-05 4.47145e-05 6.10016e-05
0.01 0 -4.14947e-05 4.47145e-05 6.10016e-05
0.01005 0 -4.3744e-05 4.22304e-05 6.08026e-05
0.01005 0 -4.3744e-05 4.22304e-05 6.08026e-05
0.0101 0 -4.58555e-05 3.97062e-05 6.06573e-05
0.0101 0 -4.58555e-05 3.97062e-05 6.06573e-05
0.01015 0 -4.78199e-05 3.71446e-05 6.05514e-05
0.01015 0 -4.78199e-05 3.71446e-05 6.05514e-05
0.0102 0 -4.96267e-05 3.45498e-05 6.0469e-05
0.0102 0 -4.96267e-05 3.45498e-05 6.0469e-05
0.01025 0 -5.12637e-05 3.19271e-05 6.03929e-05
0.01025 0 -5.12637e-05 3.19271e-05 6.03929e-05
0.0103 0 -5.27178e-05 2.92829e-05 6.03047e-05
0.0103 0 -5.27178e-05 2.92829e-05 6.03047e-05
0.01035 0 -5.39753e-05 2.66255e-05 6.01851e-05
0.01035 0 -5.39753e-05 2.66255e-05 6.01851e-05
0.0104 0 -5.50231e-05 2.39642e-05 6.00152e-05
0.0104 0 -5.50231e-05 2.39642e-05 6.00152e-05
0.01045 0 -5.58494e-05 2.13093e-05 5.97766e-05
0.01045 0 -5.58494e-05 2.13093e-05 5.97766e-05
0.0105 0 -5.64444e-05 1.86727e-05 5.94528e-05
0.0105 0 -5.64444e-05 1.86727e-05 5.94528e-05
0.01055 0 -5.67959e-05 1.60674e-05 5.90249e-05
0.01055 0 -5.67959e-05 1.60674e-05 5.90249e-05
0.0106 0 -5.69021e-05 1.35074e-05 5.84833e-05
0.0106 0 -5.69021e-05 1.35074e-05 5.84833e-05
0.01065 0 -5.67627e-05 1.10075e-05 5.78202e-05
0.01065 0 -5.67627e-05 1.10075e-05 5.78202e-05
0.0107 0 -5.63729e-05 8.58372e-06 5.70227e-05
0.0107 0 -5.63729e-05 8.58372e-06 5.70227e-05
0.01075 0 -5.57438e-05 6.25239e-06 5.60934e-05
0.01075 0 -5.57438e-05 6.25239e-06 5.60934e-05
0.0108 0 -5.48877e-05 4.02916e-06 5.50354e-05
0.0108 0 -5.48877e-05 4.02916e-06 5.50354e-05
0.01085 0 -5.38157e-05 1.92834e-06 5.38502e-05
0.01085 0 -5.38157e-05 1.92834e-06 5.38502e-05
0.0109 0 -5.25421e-05 -3.73173e-08 5.25422e-05
0.0109 0 -5.25421e-05 -3.73173e-08 5.25422e-05
0.01095 0 -5.10825e-05 -1.85684e-06 5.11162e-05
0.01095 0 -5.10825e-05 -1.85684e-06 5.11162e-05
0.011 0 -4.94502e-05 -3.5209e-06 4.95754e-05
0.011 0 -4.94502e-05 -3.5209e-06 4.95754e-05
0.01105 0 -4.76577e-05 -5.02142e-06 4.79215e-05
0.01105 0 -4.76577e-05 -5.02142e-06 4.79215e-05
0.0111 0 -4.57182e-05 -6.35135e-06 4.61573e-05
0.0111 0 -4.57182e-05 -6.35135e-06 4.61573e-05
0.01115 0 -4.36467e-05 -7.5049e-06 4.42873e-05
0.01115 0 -4.36467e-05 -7.5049e-06 4.42873e-05
0.0112 0 -4.14603e-05 -8.47818e-06 4.23183e-05
0.0112 0 -4.14603e-05 -8.47818e-06 4.23183e-05
0.01125 0 -3.91777e-05 -9.27025e-06 4.02595e-05
0.01125 0 -3.91777e-05 -9.27025e-06 4.02595e-05
0.0113 0 -3.68188e-05 -9.88423e-06 3.81225e-05
0.0113 0 -3.68188e-05 -9.88423e-06 3.81225e-05
0.01135 0 -3.44039e-05 -1.03277e-05 3.59206e-05
0.01135 0 -3.44039e-05 -1.03277e-05 3.59206e-05
0.0114 0 -3.19514e-05 -1.06125e-05 3.36678e-05
0.0114 0 -3.19514e-05 -1.06125e-05 3.36678e-05
0.01145 0 -2.94786e-05 -1.07538e-05 3.13789e-05
0.01145 0 -2.94786e-05 -1.07538e-05 3.13789e-05
0.0115 0 -2.7001e-05 -1.07689e-05 2.90693e-05
0.0115 0 -2.7001e-05 -1.07689e-05 2.90693e-05
0.01155 0 -2.45322e-05 -1.06763e-05 2.67547e-05
0.01155 0 -2.45322e-05 -1.06763e-05 2.67547e-05
0.0116 0 -2.20859e-05 -1.04947e-05 2.44526e-05
0.0116 0 -2.20859e-05 -1.04947e-05 2.44526e-05
0.01165 0 -1.96757e-05 -1.0242e-05 2.21818e-05
0.01165 0 -1.96757e-05 -1.0242e-05 2.21818e-05
0.0117 0 -1.73146e-05 -9.93478e-06 1.99624e-05
0.0117 0 -1.73146e-05 -9.93478e-06 1.99624e-05
0.01175 0 -1.50156e-05 -9.58789e-06 1.78156e-05
0.01175 0 -1.50156e-05 -9.58789e-06 1.78156e-05
0.0118 0 -1.2791e-05 -9.21412e-06 1.57642e-05
0.0118 0 -1.2791e-05 -9.21412e-06 1.57642e-05
0.01185 0 -1.06518e-05 -8.82383e-06 1.38319e-05
0.01185 0 -1.06518e-05 -8.82383e-06 1.38319e-05
0.0119 0 -8.60712e-06 -8.42447e-06 1.20438e-05
0.0119 0 -8.60712e-06 -8.42447e-06 1.20438e-05
0.01195 0 -6.66361e-06 -8.02028e-06 1.04273e-05
0.01195 0 -6.66361e-06 -8.02028e-06 1.04273e-05
0.012 0 -4.82585e-06 -7.61274e-06 9.01347e-06
0.012 0 -4.82585e-06 -7.61274e-06 9.01347e-06
0.01205 0 -3.09787e-06 -7.2016e-06 7.83963e-06
0.01205 0 -3.09787e-06 -7.2016e-06 7.83963e-06
0.0121 0 -1.48198e-06 -6.78587e-06 6.94581e-06
0.0121 0 -1.48198e-06 -6.78587e-06 6.94581e-06
0.01215 0 2.02962e-08 -6.36469e-06 6.36472e-06
0.01215 0 2.02962e-08 -6.36469e-06 6.36472e-06
0.0122 0 1.40718e-06 -5.93815e-06 6.10261e-06
0.0122 0 1.40718e-06 -5.93815e-06 6.10261e-06
0.01225 0 2.6774e-06 -5.50825e-06 6.12448e-06
0.01225 0 2.6774e-06 -5.50825e-06 6.12448e-06
0.0123 0 3.82753e-06 -5.07962e-06 6.36023e-06
0.0123 0 3.82753e-06 -5.07962e-06 6.36023e-06
0.01235 0 4.85487e-06 -4.65959e-06 6.72915e-06
0.01235 0 4.85487e-06 -4.65959e-06 6.72915e-06
0.0124 0 5.75637e-06 -4.25752e-06 7.15976e-06
0.0124 0 5.75637e-06 -4.25752e-06 7.15976e-06
0.01245 0 6.52763e-06 -3.88415e-06 7.59583e-06
0.01245 0 6.52763e-06 -3.88415e-06 7.59583e-06
0.0125 0 7.16278e-06 -3.55098e-06 7.99468e-06
0.0125 0 7.16278e-06 -3.55098e-06 7.99468e-06
0.01255 0 7.6553e-06 -3.26955e-06 8.32428e-06
0.01255 0 7.6553e-06 -3.26955e-06 8.32428e-06
0.0126 0 7.99823e-06 -3.05093e-06 8.56037e-06
0.0126 0 7.99823e-06 -3.05093e-06 8.56037e-06
0.01265 0 8.18127e-06 -2.90472e-06 8.68163e-06
0.01265 0 8.18127e-06 -2.90472e-06 8.68163e-06
0.0127 0 8.19717e-06 -2.8379e-06 8.67452e-06
0.0127 0 8.19717e-06 -2.8379e-06 8.67452e-06
0.01275 0 8.03775e-06 -2.85416e-06 8.52946e-06
0.01275 0 8.03775e-06 -2.85416e-06 8.52946e-06
0.0128 0 7.6964e-06 -2.95408e-06 8.24386e-06
0.0128 0 7.6964e-06 -2.95408e-06 8.24386e-06
0.01285 0 7.17367e-06 -3.13558e-06 7.82901e-06
0.01285 0 7.17367e-06 -3.13558e-06 7.82901e-06
0.0129 0 6.47371e-06 -3.39441e-06 7.30964e-06
0.0129 0 6.47371e-06 -3.39441e-06 7.30964e-06
0.01295 0 5.60405e-06 -3.72426e-06 6.72871e-06
0.01295 0 5.60405e-06 -3.72426e-06 6.72871e-06
0.013 0 4.5762e-06 -4.11715e-06 6.15569e-06
0.013 0 4.5762e-06 -4.11715e-06 6.15569e-06
0.01305 0 3.40494e-06 -4.56441e-06 5.69451e-06
0.01305 0 3.40494e-06 -4.56441e-06 5.69451e-06
0.0131 0 2.1082e-06 -5.05843e-06 5.48016e-06
0.0131 0 2.1082e-06 -5.05843e-06 5.48016e-06
0.01315 0 7.07565e-07 -5.59424e-06 5.63881e-06
0.01315 0 7.07565e-07 -5.59424e-06 5.63881e-06
0.0132 0 -7.72077e-07 -6.17044e-06 6.21855e-06
0.0132 0 -7.72077e-07 -6.17044e-06 6.21855e-06
0.01325 0 -2.30447e-06 -6.78904e-06 7.16949e-06
0.01325 0 -2.30447e-06 -6.78904e-06 7.16949e-06
0.0133 0 -3.86248e-06 -7.45491e-06 8.3961e-06
0.0133 0 -3.86248e-06 -7.45491e-06 8.3961e-06
0.01335 0 -5.41981e-06 -8.17495e-06 9.80837e-06
0.01335 0 -5.41981e-06 -8.17495e-06 9.80837e-06
0.0134 0 -6.95305e-06 -8.95747e-06 1.13394e-05
0.0134 0 -6.95305e-06 -8.95747e-06 1.13394e-05
0.01345 0 -8.44333e-06 -9.8117e-06 1.29445e-05
0.01345 0 -8.44333e-06 -9.8117e-06 1.29445e-05
0.0135 0 -9.87732e-06 -1.07473e-05 1.45968e-05
0.0135 0 -9.87732e-06 -1.07473e-05 1.45968e-05
0.01355 0 -1.12478e-05 -1.17737e-05 1.62829e-05
0.01355 0 -1.12478e-05 -1.17737e-05 1.62829e-05
0.0136 0 -1.2554e-05 -1.28999e-05 1.80003e-05
0.0136 0 -1.2554e-05 -1.28999e-05 1.80003e-05
0.01365 0 -1.38011e-05 -1.41337e-05 1.97543e-05
0.01365 0 -1.38011e-05 -1.41337e-05 1.97543e-05
0.0137 0 -1.50003e-05 -1.5481e-05 2.15562e-05
0.0137 0 -1.50003e-05 -1.5481e-05 2.15562e-05
0.01375 0 -1.61681e-05 -1.69453e-05 2.34211e-05
0.01375 0 -1.61681e-05 -1.69453e-05 2.34211e-05
0.0138 0 -1.73199e-05 -1.8527e-05 2.5362e-05
0.0138 0 -1.73199e-05 -1.8527e-05 2.5362e-05
0.01385 0 -1.84737e-05 -2.02239e-05 2.73913e-05
0.01385 0 -1.84737e-05 -2.02239e-05 2.73913e-05
0.0139 0 -1.96483e-05 -2.20311e-05 2.95199e-05
0.0139 0 -1.96483e-05 -2.20311e-05 2.95199e-05
0.01395 0 -2.08602e-05 -2.39426e-05 3.17553e-05
0.01395 0 -2.08602e-05 -2.39426e-05 3.17553e-05
0.014 0 -2.21219e-05 -2.59517e-05 3.41009e-05
0.014 0 -2.21219e-05 -2.59517e-05 3.41009e-05
0.01405 0 -2.34419e-05 -2.80511e-05 3.65566e-05
0.01405 0 -2.34419e-05 -2.80511e-05 3.65566e-05
0.0141 0 -2.48239e-05 -3.02333e-05 3.91187e-05
0.0141 0 -2.48239e-05 -3.02333e-05 3.91187e-05
0.01415 0 -2.62668e-05 -3.24909e-05 4.17804e-05
0.01415 0 -2.62668e-05 -3.24909e-05 4.17804e-05
0.0142 0 -2.7765e-05 -3.48168e-05 4.4532e-05
0.0142 0 -2.7765e-05 -3.48168e-05 4.4532e-05
0.01425 0 -2.93088e-05 -3.72039e-05 4.73618e-05
0.01425 0 -2.93088e-05 -3.72039e-05 4.73618e-05
0.0143 0 -3.08853e-05 -3.96449e-05 5.02556e-05
0.0143 0 -3.08853e-05 -3.96449e-05 5.02556e-05
0.01435 0 -3.24799e-05 -4.21317e-05 5.3198e-05
0.01435 0 -3.24799e-05 -4.21317e-05 5.3198e-05
0.0144 0 -3.40777e-05 -4.46555e-05 5.6173e-05
0.0144 0 -3.40777e-05 -4.46555e-05 5.6173e-05
0.01445 0 -3.56634e-05 -4.72064e-05 5.91635e-05
0.01445 0 -3.56634e-05 -4.72064e-05 5.91635e-05
0.0145 0 -3.72217e-05 -4.97737e-05 6.2152e-05
0.0145 0 -3.72217e-05 -4.97737e-05 6.2152e-05
0.01455 0 -3.87381e-05 -5.23457e-05 6.51208e-05
0.01455 0 -3.87381e-05 -5.23457e-05 6.51208e-05
0.0146 0 -4.01986e-05 -5.49102e-05 6.80518e-05
0.0146 0 -4.01986e-05 -5.49102e-05 6.80518e-05
0.01465 0 -4.15899e-05 -5.74543e-05 7.09276e-05
0.01465 0 -4.15899e-05 -5.74543e-05 7.09276e-05
0.0147 0 -4.28993e-05 -5.99658e-05 7.37309e-05
0.0147 0 -4.28993e-05 -5.99658e-05 7.37309e-05
0.01475 0 -4.41149e-05 -6.24325e-05 7.64457e-05
0.01475 0 -4.41149e-05 -6.24325e-05 7.64457e-05
0.0148 0 -4.52275e-05 -6.48434e-05 7.90581e-05
0.0148 0 -4.52275e-05 -6.48434e-05 7.90581e-05
0.01485 0 -4.62306e-05 -6.71888e-05 8.15573e-05
0.01485 0 -4.62306e-05 -6.71888e-05 8.15573e-05
0.0149 0 -4.71218e-05 -6.94607e-05 8.3936e-05
0.0149 0 -4.71218e-05 -6.94607e-05 8.3936e-05
0.01495 0 -4.79032e-05 -7.1653e-05 8.61909e-05
0.01495 0 -4.79032e-05 -7.1653e-05 8.61909e-05
0.015 0 -4.85816e-05 -7.37612e-05 8.83226e-05
0.015 0 -4.85816e-05 -7.37612e-05 8.83226e-05
0.01505 0 -4.91678e-05 -7.57822e-05 9.0335e-05
0.01505 0 -4.91678e-05 -7.57822e-05 9.0335e-05
0.0151 0 -4.96761e-05 -7.77138e-05 9.22342e-05
0.0151 0 -4.96761e-05 -7.77138e-05 9.22342e-05
0.01515 0 -5.01228e-05 -7.95548e-05 9.4028e-05
0.01515 0 -5.01228e-05 -7.95548e-05 9.4028e-05
0.0152 0 -5.05261e-05 -8.13044e-05 9.57251e-05
0.0152 0 -5.05261e-05 -8.13044e-05 9.57251e-05
0.01525 0 -5.09045e-05 -8.29616e-05 9.73339e-05
0.01525 0 -5.09045e-05 -8.29616e-05 9.73339e-05
0.0153 0 -5.1277e-05 -8.45248e-05 9.88624e-05
0.0153 0 -5.1277e-05 -8.45248e-05 9.88624e-05
0.01535 0 -5.16619e-05 -8.59912e-05 0.000100317
0.01535 0 -5.16619e-05 -8.59912e-05 0.000100317
0.0154 0 -5.20765e-05 -8.73561e-05 0.000101701
0.0154 0 -5.20765e-05 -8.73561e-05 0.000101701
0.01545 0 -5.25363e-05 -8.86124e-05 0.000103016
0.01545 0 -5.25363e-05 -8.86124e-05 0.000103016
0.0155 0 -5.30541e-05 -8.97507e-05 0.000104259
0.0155 0 -5.30541e-05 -8.97507e-05 0.000104259
0.01555 0 -5.36391e-05 -9.076e-05 0.000105425
0.01555 0 -5.36391e-05 -9.076e-05 0.000105425
0.0156 0 -5.42968e-05 -9.16274e-05 0.000106507
0.0156 0 -5.42968e-05 -9.16274e-05 0.000106507
0.01565 0 -5.50281e-05 -9.234e-05 0.000107493
0.01565 0 -5.50281e-05 -9.234e-05 0.000107493
0.0157 0 -5.58301e-05 -9.28851e-05 0.000108373
0.0157 0 -5.58301e-05 -9.28851e-05 0.000108373
0.01575 0 -5.66965e-05 -9.32516e-05 0.000109135
0.01575 0 -5.66965e-05 -9.32516e-05 0.000109135
0.0158 0 -5.76186e-05 -9.34303e-05 0.000109768
0.0158 0 -5.76186e-05 -9.34303e-05 0.000109768
0.01585 0 -5.85867e-05 -9.3415e-05 0.000110267
0.01585 0 -5.85867e-05 -9.3415e-05 0.000110267
0.0159 0 -5.95913e-05 -9.32025e-05 0.000110625
0.0159 0 -5.95913e-05 -9.32025e-05 0.000110625
0.01595 0 -6.06244e-05 -9.27926e-05 0.000110841
0.01595 0 -6.06244e-05 -9.27926e-05 0.000110841
0.016 0 -6.16805e-05 -9.21874e-05 0.000110919
0.016 0 -6.16805e-05 -9.21874e-05 0.000110919
0.01605 0 -6.27569e-05 -9.13913e-05 0.000110864
0.01605 0 -6.27569e-05 -9.13913e-05 0.000110864
0.0161 0 -6.38544e-05 -9.04098e-05 0.000110686
0.0161 0 -6.38544e-05 -9.04098e-05 0.000110686
0.01615 0 -6.49762e-05 -8.92489e-05 0.000110396
0.01615 0 -6.49762e-05 -8.92489e-05 0.000110396
0.0162 0 -6.61282e-05 -8.79141e-05 0.000110008
0.0162 0 -6.61282e-05 -8.79141e-05 0.000110008