# Force       
# CofR        : (5.000000e-01 1.000000e-01 0.000000e+00)
#
# Time        	(total_x total_y total_z)	(pressure_x pressure_y pressure_z)	(viscous_x viscous_y viscous_z)
0.0001        	(1.059241e-02 1.059241e-02 -2.590693e-06)	(1.059318e-02 1.059318e-02 -2.518312e-05)	(-7.703733e-07 -7.703824e-07 2.259242e-05)
0.0002        	(1.335694e-02 1.335694e-02 -1.770992e-05)	(1.335812e-02 1.335812e-02 -6.315596e-05)	(-1.179896e-06 -1.179909e-06 4.544604e-05)
0.0003        	(1.521346e-02 1.521346e-02 -4.303006e-05)	(1.521492e-02 1.521492e-02 -1.114623e-04)	(-1.461356e-06 -1.461373e-06 6.843225e-05)
0.0004        	(1.741425e-02 1.741425e-02 -7.361044e-05)	(1.741587e-02 1.741587e-02 -1.654684e-04)	(-1.623879e-06 -1.623902e-06 9.185792e-05)
0.0005        	(1.994938e-02 1.994938e-02 -1.061009e-04)	(1.995107e-02 1.995107e-02 -2.219719e-04)	(-1.687081e-06 -1.687103e-06 1.158709e-04)
0.0006        	(2.269555e-02 2.269555e-02 -1.384205e-04)	(2.269722e-02 2.269722e-02 -2.788412e-04)	(-1.672313e-06 -1.672337e-06 1.404207e-04)
0.0007        	(2.560718e-02 2.560718e-02 -1.688174e-04)	(2.560878e-02 2.560878e-02 -3.342320e-04)	(-1.600769e-06 -1.600798e-06 1.654147e-04)
0.0008        	(2.866058e-02 2.866058e-02 -1.958121e-04)	(2.866207e-02 2.866207e-02 -3.865895e-04)	(-1.492172e-06 -1.492196e-06 1.907774e-04)
0.0009        	(3.184024e-02 3.184024e-02 -2.184025e-04)	(3.184160e-02 3.184160e-02 -4.348465e-04)	(-1.363460e-06 -1.363487e-06 2.164440e-04)
0.001         	(3.513496e-02 3.513497e-02 -2.360981e-04)	(3.513619e-02 3.513620e-02 -4.784480e-04)	(-1.228276e-06 -1.228280e-06 2.423499e-04)
0.0011        	(3.853357e-02 3.853357e-02 -2.487872e-04)	(3.853466e-02 3.853467e-02 -5.172171e-04)	(-1.096728e-06 -1.096743e-06 2.684299e-04)
0.0012        	(4.202261e-02 4.202261e-02 -2.566064e-04)	(4.202359e-02 4.202359e-02 -5.512279e-04)	(-9.760961e-07 -9.761363e-07 2.946216e-04)
0.0013        	(4.559438e-02 4.559438e-02 -2.597801e-04)	(4.559525e-02 4.559525e-02 -5.806480e-04)	(-8.709580e-07 -8.710098e-07 3.208679e-04)
0.0014        	(4.923818e-02 4.923817e-02 -2.586171e-04)	(4.923896e-02 4.923896e-02 -6.057344e-04)	(-7.839352e-07 -7.840160e-07 3.471173e-04)
0.0015        	(5.293667e-02 5.293664e-02 -2.534968e-04)	(5.293739e-02 5.293736e-02 -6.268213e-04)	(-7.159071e-07 -7.159335e-07 3.733245e-04)
0.0016        	(5.668776e-02 5.668778e-02 -2.447339e-04)	(5.668842e-02 5.668845e-02 -6.441826e-04)	(-6.665525e-07 -6.665748e-07 3.994487e-04)
0.0017        	(6.047729e-02 6.047729e-02 -2.327595e-04)	(6.047792e-02 6.047793e-02 -6.582125e-04)	(-6.346934e-07 -6.347555e-07 4.254530e-04)
0.0018        	(6.429127e-02 6.429127e-02 -2.179783e-04)	(6.429189e-02 6.429189e-02 -6.692801e-04)	(-6.184580e-07 -6.185372e-07 4.513018e-04)
0.0019        	(6.813899e-02 6.813899e-02 -2.006742e-04)	(6.813961e-02 6.813960e-02 -6.776328e-04)	(-6.156482e-07 -6.157627e-07 4.769586e-04)
0.002         	(7.198836e-02 7.198837e-02 -1.813822e-04)	(7.198898e-02 7.198900e-02 -6.837655e-04)	(-6.239566e-07 -6.240943e-07 5.023833e-04)
0.0021        	(7.585263e-02 7.585260e-02 -1.603562e-04)	(7.585327e-02 7.585324e-02 -6.878874e-04)	(-6.409283e-07 -6.410600e-07 5.275312e-04)
0.0022        	(7.971562e-02 7.971584e-02 -1.380127e-04)	(7.971628e-02 7.971651e-02 -6.903628e-04)	(-6.641180e-07 -6.645766e-07 5.523501e-04)
0.0023        	(8.358424e-02 8.358410e-02 -1.146183e-04)	(8.358493e-02 8.358479e-02 -6.913967e-04)	(-6.917460e-07 -6.921728e-07 5.767784e-04)
0.0024        	(8.743674e-02 8.743670e-02 -9.062287e-05)	(8.743747e-02 8.743742e-02 -6.913674e-04)	(-7.217757e-07 -7.221339e-07 6.007446e-04)
0.0025        	(9.128567e-02 9.128567e-02 -6.622237e-05)	(9.128642e-02 9.128642e-02 -6.903884e-04)	(-7.525574e-07 -7.528709e-07 6.241661e-04)
0.0026        	(9.512283e-02 9.512284e-02 -4.175382e-05)	(9.512361e-02 9.512362e-02 -6.887046e-04)	(-7.827857e-07 -7.830818e-07 6.469508e-04)
0.0027        	(9.893213e-02 9.893234e-02 -1.758049e-05)	(9.893294e-02 9.893315e-02 -6.865815e-04)	(-8.112641e-07 -8.118410e-07 6.690010e-04)
0.0028        	(1.027377e-01 1.027375e-01 6.219349e-06)	(1.027385e-01 1.027383e-01 -6.839963e-04)	(-8.375106e-07 -8.379821e-07 6.902156e-04)
0.0029        	(1.065174e-01 1.065173e-01 2.927277e-05)	(1.065182e-01 1.065182e-01 -6.812244e-04)	(-8.607705e-07 -8.611417e-07 7.104972e-04)
0.003         	(1.102716e-01 1.102715e-01 5.138898e-05)	(1.102724e-01 1.102724e-01 -6.783670e-04)	(-8.806813e-07 -8.809149e-07 7.297560e-04)
0.0031        	(1.033415e-01 1.033415e-01 5.669330e-04)	(1.033422e-01 1.033422e-01 -1.578329e-04)	(-7.030372e-07 -7.032525e-07 7.247659e-04)
0.0032        	(1.042211e-01 1.042204e-01 6.402961e-04)	(1.042218e-01 1.042212e-01 -7.788501e-05)	(-7.547952e-07 -7.540773e-07 7.181811e-04)
0.0033        	(1.060098e-01 1.060100e-01 6.591608e-04)	(1.060106e-01 1.060108e-01 -5.113463e-05)	(-7.949618e-07 -7.940043e-07 7.102954e-04)
0.0034        	(1.074370e-01 1.074374e-01 6.730982e-04)	(1.074378e-01 1.074382e-01 -2.775030e-05)	(-8.181275e-07 -8.177636e-07 7.008485e-04)
0.0035        	(1.085030e-01 1.085030e-01 6.823448e-04)	(1.085038e-01 1.085038e-01 -7.381305e-06)	(-8.191347e-07 -8.190879e-07 6.897261e-04)
0.0036        	(1.093301e-01 1.093304e-01 6.848406e-04)	(1.093309e-01 1.093312e-01 7.824369e-06)	(-7.959615e-07 -7.964850e-07 6.770162e-04)
0.0037        	(1.099725e-01 1.099727e-01 6.808966e-04)	(1.099732e-01 1.099735e-01 1.803708e-05)	(-7.496280e-07 -7.510293e-07 6.628595e-04)
0.0038        	(1.104536e-01 1.104530e-01 6.716910e-04)	(1.104543e-01 1.104537e-01 2.429781e-05)	(-6.837857e-07 -6.848420e-07 6.473932e-04)
0.0039        	(1.107922e-01 1.107921e-01 6.582818e-04)	(1.107928e-01 1.107927e-01 2.752595e-05)	(-6.018798e-07 -6.026307e-07 6.307558e-04)
0.004         	(1.110084e-01 1.110086e-01 6.418215e-04)	(1.110089e-01 1.110091e-01 2.872639e-05)	(-5.091541e-07 -5.099520e-07 6.130951e-04)
0.0041        	(1.111090e-01 1.111086e-01 6.232259e-04)	(1.111094e-01 1.111090e-01 2.866129e-05)	(-4.115965e-07 -4.117171e-07 5.945646e-04)
0.0042        	(1.111165e-01 1.111167e-01 6.031553e-04)	(1.111168e-01 1.111171e-01 2.783861e-05)	(-3.139231e-07 -3.139315e-07 5.753167e-04)
0.0043        	(1.110421e-01 1.110420e-01 5.822408e-04)	(1.110423e-01 1.110422e-01 2.674181e-05)	(-2.207857e-07 -2.206074e-07 5.554990e-04)
0.0044        	(1.108930e-01 1.108931e-01 5.608523e-04)	(1.108931e-01 1.108933e-01 2.560219e-05)	(-1.351225e-07 -1.351251e-07 5.352502e-04)
0.0045        	(1.106866e-01 1.106866e-01 5.392266e-04)	(1.106867e-01 1.106867e-01 2.452562e-05)	(-5.918850e-08 -5.934344e-08 5.147009e-04)
0.0046        	(1.104326e-01 1.104326e-01 5.176886e-04)	(1.104326e-01 1.104326e-01 2.371446e-05)	(5.853058e-09 5.557691e-09 4.939741e-04)
0.0047        	(1.101403e-01 1.101402e-01 4.962253e-04)	(1.101402e-01 1.101402e-01 2.303917e-05)	(5.943133e-08 5.907950e-08 4.731861e-04)
0.0048        	(1.098204e-01 1.098204e-01 4.749702e-04)	(1.098203e-01 1.098203e-01 2.252075e-05)	(1.016849e-07 1.012246e-07 4.524495e-04)
0.0049        	(1.094755e-01 1.094752e-01 4.539951e-04)	(1.094753e-01 1.094751e-01 2.211960e-05)	(1.325662e-07 1.324109e-07 4.318755e-04)
0.005         	(1.091133e-01 1.091135e-01 4.332561e-04)	(1.091131e-01 1.091133e-01 2.167833e-05)	(1.530777e-07 1.528576e-07 4.115777e-04)
0.0051        	(1.087459e-01 1.087456e-01 4.128391e-04)	(1.087458e-01 1.087454e-01 2.116517e-05)	(1.632813e-07 1.635200e-07 3.916739e-04)
0.0052        	(1.083636e-01 1.083638e-01 3.927782e-04)	(1.083634e-01 1.083637e-01 2.048864e-05)	(1.643283e-07 1.645318e-07 3.722896e-04)
0.0053        	(1.079832e-01 1.079833e-01 3.731413e-04)	(1.079830e-01 1.079831e-01 1.958152e-05)	(1.570912e-07 1.570812e-07 3.535597e-04)
0.0054        	(1.076004e-01 1.076003e-01 3.540320e-04)	(1.076002e-01 1.076002e-01 1.840281e-05)	(1.421099e-07 1.420332e-07 3.356292e-04)
0.0055        	(1.072162e-01 1.072163e-01 3.355973e-04)	(1.072161e-01 1.072161e-01 1.694544e-05)	(1.206311e-07 1.204212e-07 3.186519e-04)
0.0056        	(1.068353e-01 1.068353e-01 3.180022e-04)	(1.068352e-01 1.068352e-01 1.521215e-05)	(9.356073e-08 9.322329e-08 3.027900e-04)
0.0057        	(1.064581e-01 1.064581e-01 3.014405e-04)	(1.064580e-01 1.064580e-01 1.323273e-05)	(6.191776e-08 6.148749e-08 2.882078e-04)
0.0058        	(1.060826e-01 1.060827e-01 2.861207e-04)	(1.060826e-01 1.060826e-01 1.105391e-05)	(2.692171e-08 2.639426e-08 2.750668e-04)
0.0059        	(1.057091e-01 1.057091e-01 2.722249e-04)	(1.057091e-01 1.057091e-01 8.704113e-06)	(-1.063441e-08 -1.116069e-08 2.635208e-04)
0.006         	(1.053400e-01 1.053400e-01 2.599623e-04)	(1.053401e-01 1.053401e-01 6.255562e-06)	(-4.987043e-08 -5.035550e-08 2.537068e-04)
0.0061        	(1.049697e-01 1.049697e-01 2.494787e-04)	(1.049697e-01 1.049698e-01 3.739443e-06)	(-8.990308e-08 -9.049753e-08 2.457393e-04)
0.0062        	(1.045977e-01 1.045976e-01 2.408696e-04)	(1.045978e-01 1.045978e-01 1.164909e-06)	(-1.303806e-07 -1.309114e-07 2.397046e-04)
0.0063        	(1.042262e-01 1.042260e-01 2.342461e-04)	(1.042264e-01 1.042262e-01 -1.410731e-06)	(-1.709830e-07 -1.711657e-07 2.356568e-04)
0.0064        	(1.038484e-01 1.038487e-01 2.296382e-04)	(1.038486e-01 1.038489e-01 -3.976370e-06)	(-2.109747e-07 -2.114547e-07 2.336145e-04)
0.0065        	(1.034597e-01 1.034596e-01 2.269910e-04)	(1.034599e-01 1.034599e-01 -6.570858e-06)	(-2.504177e-07 -2.510233e-07 2.335618e-04)
0.0066        	(1.030661e-01 1.030660e-01 2.263072e-04)	(1.030664e-01 1.030662e-01 -9.142208e-06)	(-2.890668e-07 -2.895361e-07 2.354494e-04)
0.0067        	(1.026554e-01 1.026555e-01 2.274989e-04)	(1.026557e-01 1.026558e-01 -1.169814e-05)	(-3.262751e-07 -3.268646e-07 2.391971e-04)
0.0068        	(1.022266e-01 1.022265e-01 2.304549e-04)	(1.022269e-01 1.022269e-01 -1.424445e-05)	(-3.615537e-07 -3.620883e-07 2.446993e-04)
0.0069        	(1.017803e-01 1.017803e-01 2.350876e-04)	(1.017807e-01 1.017807e-01 -1.674134e-05)	(-3.940086e-07 -3.944363e-07 2.518290e-04)
0.007         	(1.013062e-01 1.013063e-01 2.412800e-04)	(1.013066e-01 1.013067e-01 -1.916336e-05)	(-4.224034e-07 -4.228355e-07 2.604434e-04)
0.0071        	(1.008071e-01 1.008071e-01 2.489272e-04)	(1.008075e-01 1.008075e-01 -2.146142e-05)	(-4.454629e-07 -4.459142e-07 2.703886e-04)
0.0072        	(1.002751e-01 1.002750e-01 2.579217e-04)	(1.002756e-01 1.002755e-01 -2.358211e-05)	(-4.617724e-07 -4.620803e-07 2.815038e-04)
0.0073        	(9.970732e-02 9.970733e-02 2.681591e-04)	(9.970779e-02 9.970780e-02 -2.546653e-05)	(-4.697406e-07 -4.700032e-07 2.936256e-04)
0.0074        	(9.910130e-02 9.910147e-02 2.795303e-04)	(9.910177e-02 9.910194e-02 -2.706034e-05)	(-4.679008e-07 -4.683589e-07 3.065906e-04)
0.0075        	(9.845290e-02 9.845283e-02 2.919271e-04)	(9.845335e-02 9.845329e-02 -2.831044e-05)	(-4.552828e-07 -4.557415e-07 3.202375e-04)
0.0076        	(9.775670e-02 9.775662e-02 3.052299e-04)	(9.775713e-02 9.775705e-02 -2.917893e-05)	(-4.311925e-07 -4.315074e-07 3.344088e-04)
0.0077        	(9.701036e-02 9.701036e-02 3.193001e-04)	(9.701075e-02 9.701075e-02 -2.965104e-05)	(-3.951632e-07 -3.954285e-07 3.489512e-04)
0.0078        	(9.620877e-02 9.620875e-02 3.339950e-04)	(9.620912e-02 9.620910e-02 -2.972132e-05)	(-3.475827e-07 -3.477422e-07 3.637163e-04)
0.0079        	(9.534981e-02 9.534981e-02 3.491422e-04)	(9.535010e-02 9.535010e-02 -2.941834e-05)	(-2.891503e-07 -2.891889e-07 3.785605e-04)
0.008         	(9.442790e-02 9.442785e-02 3.645678e-04)	(9.442812e-02 9.442808e-02 -2.877750e-05)	(-2.211267e-07 -2.210196e-07 3.933453e-04)
0.0081        	(9.343915e-02 9.343916e-02 3.800920e-04)	(9.343930e-02 9.343930e-02 -2.784447e-05)	(-1.451892e-07 -1.449846e-07 4.079364e-04)
0.0082        	(9.237881e-02 9.237895e-02 3.955186e-04)	(9.237887e-02 9.237902e-02 -2.668573e-05)	(-6.316622e-08 -6.309387e-08 4.222044e-04)
0.0083        	(9.124272e-02 9.124267e-02 4.106605e-04)	(9.124270e-02 9.124265e-02 -2.536359e-05)	(2.267033e-08 2.271499e-08 4.360241e-04)
0.0084        	(9.002826e-02 9.002826e-02 4.253482e-04)	(9.002815e-02 9.002815e-02 -2.392774e-05)	(1.101168e-07 1.101954e-07 4.492759e-04)
0.0085        	(8.872796e-02 8.872812e-02 4.394006e-04)	(8.872777e-02 8.872792e-02 -2.244514e-05)	(1.972802e-07 1.971241e-07 4.618457e-04)
0.0086        	(8.733723e-02 8.733699e-02 4.526681e-04)	(8.733695e-02 8.733671e-02 -2.095833e-05)	(2.816471e-07 2.817369e-07 4.736264e-04)
0.0087        	(8.585308e-02 8.585314e-02 4.650213e-04)	(8.585272e-02 8.585278e-02 -1.949728e-05)	(3.617598e-07 3.619496e-07 4.845186e-04)
0.0088        	(8.426893e-02 8.426885e-02 4.763352e-04)	(8.426850e-02 8.426842e-02 -1.809731e-05)	(4.358519e-07 4.362096e-07 4.944325e-04)
0.0089        	(8.258418e-02 8.258421e-02 4.865316e-04)	(8.258368e-02 8.258371e-02 -1.675783e-05)	(5.026755e-07 5.031572e-07 5.032895e-04)
0.009         	(8.078301e-02 8.078307e-02 4.954847e-04)	(8.078245e-02 8.078251e-02 -1.553872e-05)	(5.611121e-07 5.615806e-07 5.110234e-04)
0.0091        	(7.887707e-02 7.887726e-02 5.031996e-04)	(7.887646e-02 7.887665e-02 -1.438210e-05)	(6.104512e-07 6.105977e-07 5.175817e-04)
0.0092        	(7.685134e-02 7.685111e-02 5.095816e-04)	(7.685069e-02 7.685046e-02 -1.334602e-05)	(6.497545e-07 6.500262e-07 5.229276e-04)
0.0093        	(7.469795e-02 7.469797e-02 5.146389e-04)	(7.469727e-02 7.469729e-02 -1.240144e-05)	(6.791308e-07 6.794362e-07 5.270404e-04)
0.0094        	(7.242260e-02 7.242257e-02 5.183624e-04)	(7.242191e-02 7.242187e-02 -1.155275e-05)	(6.985938e-07 6.989785e-07 5.299151e-04)
0.0095        	(7.001753e-02 7.001759e-02 5.207488e-04)	(7.001682e-02 7.001688e-02 -1.081547e-05)	(7.087586e-07 7.091154e-07 5.315643e-04)
0.0096        	(6.747569e-02 6.747567e-02 5.218455e-04)	(6.747498e-02 6.747496e-02 -1.017040e-05)	(7.104106e-07 7.107775e-07 5.320159e-04)
0.0097        	(6.479994e-02 6.479994e-02 5.216917e-04)	(6.479924e-02 6.479924e-02 -9.621469e-06)	(7.048700e-07 7.052692e-07 5.313132e-04)
0.0098        	(6.198461e-02 6.198465e-02 5.203462e-04)	(6.198391e-02 6.198396e-02 -9.167488e-06)	(6.938664e-07 6.941889e-07 5.295137e-04)
0.0099        	(5.902124e-02 5.902115e-02 5.179094e-04)	(5.902056e-02 5.902047e-02 -8.777364e-06)	(6.793386e-07 6.797320e-07 5.266868e-04)
0.01          	(5.592386e-02 5.592376e-02 5.144138e-04)	(5.592319e-02 5.592310e-02 -8.498811e-06)	(6.636853e-07 6.642491e-07 5.229126e-04)
0.0101        	(5.267840e-02 5.267849e-02 5.100429e-04)	(5.267775e-02 5.267784e-02 -8.236594e-06)	(6.499143e-07 6.504307e-07 5.182795e-04)
0.0102        	(4.928873e-02 4.928877e-02 5.048321e-04)	(4.928809e-02 4.928813e-02 -8.050509e-06)	(6.408483e-07 6.412724e-07 5.128827e-04)
0.0103        	(4.575967e-02 4.575968e-02 4.989023e-04)	(4.575904e-02 4.575904e-02 -7.921782e-06)	(6.395641e-07 6.399078e-07 5.068241e-04)
0.0104        	(4.208200e-02 4.208196e-02 4.924522e-04)	(4.208135e-02 4.208131e-02 -7.756837e-06)	(6.491716e-07 6.494855e-07 5.002090e-04)
0.0105        	(3.826979e-02 3.826989e-02 4.855028e-04)	(3.826912e-02 3.826922e-02 -7.641100e-06)	(6.728392e-07 6.729710e-07 4.931439e-04)
0.0106        	(3.432260e-02 3.432261e-02 4.782240e-04)	(3.432189e-02 3.432189e-02 -7.511221e-06)	(7.133996e-07 7.133919e-07 4.857352e-04)
0.0107        	(3.024296e-02 3.024293e-02 4.707303e-04)	(3.024219e-02 3.024216e-02 -7.357465e-06)	(7.732722e-07 7.732501e-07 4.780877e-04)
0.0108        	(2.603351e-02 2.603350e-02 4.631361e-04)	(2.603265e-02 2.603265e-02 -7.167262e-06)	(8.547462e-07 8.546591e-07 4.703033e-04)
0.0109        	(2.170896e-02 2.170905e-02 4.555280e-04)	(2.170800e-02 2.170809e-02 -6.952024e-06)	(9.593804e-07 9.591321e-07 4.624800e-04)
0.011         	(1.727490e-02 1.727486e-02 4.479952e-04)	(1.727382e-02 1.727378e-02 -6.716188e-06)	(1.088036e-06 1.087759e-06 4.547113e-04)
0.0111        	(1.273091e-02 1.273086e-02 4.406685e-04)	(1.272966e-02 1.272961e-02 -6.416635e-06)	(1.240929e-06 1.240727e-06 4.470852e-04)
0.0112        	(8.092210e-03 8.092262e-03 4.336182e-04)	(8.090793e-03 8.090845e-03 -6.064844e-06)	(1.417474e-06 1.417242e-06 4.396831e-04)
0.0113        	(3.378738e-03 3.378724e-03 4.268715e-04)	(3.377122e-03 3.377108e-03 -5.708618e-06)	(1.616288e-06 1.616053e-06 4.325801e-04)
0.0114        	(-1.419839e-03 -1.419873e-03 4.205694e-04)	(-1.421674e-03 -1.421708e-03 -5.274304e-06)	(1.834993e-06 1.834810e-06 4.258437e-04)
0.0115        	(-6.271674e-03 -6.271628e-03 4.147094e-04)	(-6.273745e-03 -6.273698e-03 -4.823620e-06)	(2.070603e-06 2.070373e-06 4.195330e-04)
0.0116        	(-1.116940e-02 -1.116940e-02 4.093593e-04)	(-1.117172e-02 -1.117172e-02 -4.339197e-06)	(2.319096e-06 2.318842e-06 4.136985e-04)
0.0117        	(-1.610636e-02 -1.610637e-02 4.045687e-04)	(-1.610894e-02 -1.610895e-02 -3.812929e-06)	(2.575810e-06 2.575564e-06 4.083816e-04)
0.0118        	(-2.106086e-02 -2.106075e-02 4.003504e-04)	(-2.106369e-02 -2.106358e-02 -3.264310e-06)	(2.835612e-06 2.835204e-06 4.036147e-04)
0.0119        	(-2.601558e-02 -2.601568e-02 3.967218e-04)	(-2.601867e-02 -2.601878e-02 -2.697904e-06)	(3.092531e-06 3.092201e-06 3.994197e-04)
0.012         	(-3.096257e-02 -3.096256e-02 3.936906e-04)	(-3.096591e-02 -3.096591e-02 -2.117515e-06)	(3.340585e-06 3.340303e-06 3.958081e-04)
0.0121        	(-3.588615e-02 -3.588616e-02 3.912521e-04)	(-3.588972e-02 -3.588973e-02 -1.528574e-06)	(3.573441e-06 3.573205e-06 3.927807e-04)
0.0122        	(-4.076523e-02 -4.076520e-02 3.893787e-04)	(-4.076902e-02 -4.076898e-02 -9.484150e-07)	(3.784738e-06 3.784502e-06 3.903271e-04)
0.0123        	(-4.559102e-02 -4.559130e-02 3.880260e-04)	(-4.559499e-02 -4.559527e-02 -3.999079e-07)	(3.968046e-06 3.968215e-06 3.884259e-04)
0.0124        	(-5.033848e-02 -5.033841e-02 3.871705e-04)	(-5.034260e-02 -5.034253e-02 1.256023e-07)	(4.117725e-06 4.118026e-06 3.870449e-04)
0.0125        	(-5.499985e-02 -5.499970e-02 3.867164e-04)	(-5.500408e-02 -5.500392e-02 5.750399e-07)	(4.228359e-06 4.228494e-06 3.861413e-04)
0.0126        	(-5.956221e-02 -5.956218e-02 3.866062e-04)	(-5.956650e-02 -5.956647e-02 9.434969e-07)	(4.294993e-06 4.294998e-06 3.856627e-04)
0.0127        	(-6.400578e-02 -6.400578e-02 3.867568e-04)	(-6.401009e-02 -6.401010e-02 1.209521e-06)	(4.313616e-06 4.313534e-06 3.855473e-04)
0.0128        	(-6.831903e-02 -6.831906e-02 3.870763e-04)	(-6.832331e-02 -6.832334e-02 1.351487e-06)	(4.281118e-06 4.281013e-06 3.857248e-04)
0.0129        	(-7.248524e-02 -7.248518e-02 3.874748e-04)	(-7.248943e-02 -7.248938e-02 1.356975e-06)	(4.195524e-06 4.195325e-06 3.861178e-04)
0.013         	(-7.650223e-02 -7.650216e-02 3.878398e-04)	(-7.650628e-02 -7.650621e-02 1.196691e-06)	(4.055862e-06 4.055513e-06 3.866431e-04)
0.0131        	(-8.034408e-02 -8.034418e-02 3.880947e-04)	(-8.034794e-02 -8.034804e-02 8.824114e-07)	(3.862212e-06 3.861975e-06 3.872123e-04)
0.0132        	(-8.401087e-02 -8.401088e-02 3.881269e-04)	(-8.401449e-02 -8.401449e-02 3.928812e-07)	(3.616065e-06 3.615926e-06 3.877340e-04)
0.0133        	(-8.749266e-02 -8.749262e-02 3.878446e-04)	(-8.749598e-02 -8.749594e-02 -2.706170e-07)	(3.319983e-06 3.319866e-06 3.881152e-04)
0.0134        	(-9.077528e-02 -9.077536e-02 3.871799e-04)	(-9.077826e-02 -9.077834e-02 -1.082674e-06)	(2.977494e-06 2.977534e-06 3.882626e-04)
0.0135        	(-9.384921e-02 -9.384918e-02 3.860592e-04)	(-9.385180e-02 -9.385178e-02 -2.025090e-06)	(2.593371e-06 2.593475e-06 3.880843e-04)
0.0136        	(-9.671642e-02 -9.671637e-02 3.843758e-04)	(-9.671859e-02 -9.671854e-02 -3.115334e-06)	(2.173190e-06 2.173252e-06 3.874911e-04)
0.0137        	(-9.936802e-02 -9.936808e-02 3.821005e-04)	(-9.936974e-02 -9.936980e-02 -4.297330e-06)	(1.723168e-06 1.723294e-06 3.863979e-04)
0.0138        	(-1.017909e-01 -1.017908e-01 3.791888e-04)	(-1.017921e-01 -1.017921e-01 -5.536591e-06)	(1.250352e-06 1.250483e-06 3.847254e-04)
0.0139        	(-1.039963e-01 -1.039962e-01 3.755480e-04)	(-1.039970e-01 -1.039969e-01 -6.853019e-06)	(7.621655e-07 7.621232e-07 3.824010e-04)
0.014         	(-1.059660e-01 -1.059661e-01 3.712125e-04)	(-1.059662e-01 -1.059663e-01 -8.147927e-06)	(2.660773e-07 2.660619e-07 3.793604e-04)
0.0141        	(-1.077102e-01 -1.077103e-01 3.660892e-04)	(-1.077100e-01 -1.077100e-01 -9.458916e-06)	(-2.301527e-07 -2.301259e-07 3.755481e-04)
0.0142        	(-1.092251e-01 -1.092252e-01 3.601817e-04)	(-1.092244e-01 -1.092244e-01 -1.073615e-05)	(-7.189392e-07 -7.188740e-07 3.709179e-04)
0.0143        	(-1.105089e-01 -1.105089e-01 3.534831e-04)	(-1.105077e-01 -1.105077e-01 -1.195286e-05)	(-1.193043e-06 -1.192920e-06 3.654360e-04)
0.0144        	(-1.115615e-01 -1.115615e-01 3.460039e-04)	(-1.115599e-01 -1.115599e-01 -1.307710e-05)	(-1.645755e-06 -1.645585e-06 3.590810e-04)
0.0145        	(-1.123939e-01 -1.123939e-01 3.377002e-04)	(-1.123918e-01 -1.123918e-01 -1.414311e-05)	(-2.071053e-06 -2.070832e-06 3.518433e-04)
0.0146        	(-1.130046e-01 -1.130047e-01 3.286075e-04)	(-1.130022e-01 -1.130022e-01 -1.511785e-05)	(-2.463741e-06 -2.463454e-06 3.437253e-04)
0.0147        	(-1.133934e-01 -1.133935e-01 3.187807e-04)	(-1.133906e-01 -1.133907e-01 -1.596137e-05)	(-2.819619e-06 -2.819178e-06 3.347420e-04)
0.0148        	(-1.135801e-01 -1.135800e-01 3.081737e-04)	(-1.135770e-01 -1.135769e-01 -1.674675e-05)	(-3.135371e-06 -3.134949e-06 3.249205e-04)
0.0149        	(-1.135532e-01 -1.135531e-01 2.968982e-04)	(-1.135498e-01 -1.135497e-01 -1.740175e-05)	(-3.408892e-06 -3.408567e-06 3.142999e-04)
0.015         	(-1.133359e-01 -1.133358e-01 2.849549e-04)	(-1.133322e-01 -1.133322e-01 -1.797672e-05)	(-3.639231e-06 -3.638984e-06 3.029316e-04)
0.0151        	(-1.129281e-01 -1.129282e-01 2.724150e-04)	(-1.129243e-01 -1.129244e-01 -1.846343e-05)	(-3.826469e-06 -3.826209e-06 2.908784e-04)
0.0152        	(-1.123381e-01 -1.123380e-01 2.593710e-04)	(-1.123341e-01 -1.123341e-01 -1.884273e-05)	(-3.971628e-06 -3.971423e-06 2.782137e-04)
0.0153        	(-1.115829e-01 -1.115829e-01 2.458637e-04)	(-1.115788e-01 -1.115788e-01 -1.915773e-05)	(-4.076796e-06 -4.076680e-06 2.650214e-04)
0.0154        	(-1.106650e-01 -1.106651e-01 2.320158e-04)	(-1.106609e-01 -1.106610e-01 -1.937853e-05)	(-4.144989e-06 -4.144748e-06 2.513944e-04)
0.0155        	(-1.095994e-01 -1.095994e-01 2.179216e-04)	(-1.095952e-01 -1.095952e-01 -1.951219e-05)	(-4.179668e-06 -4.179363e-06 2.374338e-04)
0.0156        	(-1.083971e-01 -1.083972e-01 2.036809e-04)	(-1.083929e-01 -1.083930e-01 -1.956701e-05)	(-4.185068e-06 -4.184627e-06 2.232480e-04)
0.0157        	(-1.070683e-01 -1.070683e-01 1.894211e-04)	(-1.070642e-01 -1.070641e-01 -1.952990e-05)	(-4.165620e-06 -4.165154e-06 2.089510e-04)
0.0158        	(-1.056264e-01 -1.056264e-01 1.752685e-04)	(-1.056223e-01 -1.056222e-01 -1.939334e-05)	(-4.126080e-06 -4.125633e-06 1.946618e-04)
0.0159        	(-1.040831e-01 -1.040831e-01 1.613499e-04)	(-1.040790e-01 -1.040790e-01 -1.915223e-05)	(-4.071216e-06 -4.070767e-06 1.805021e-04)
0.016         	(-1.024489e-01 -1.024490e-01 1.478036e-04)	(-1.024449e-01 -1.024450e-01 -1.879203e-05)	(-4.005625e-06 -4.005063e-06 1.665956e-04)
0.0161        	(-1.007391e-01 -1.007391e-01 1.347713e-04)	(-1.007352e-01 -1.007351e-01 -1.829495e-05)	(-3.933411e-06 -3.932922e-06 1.530663e-04)
0.0162        	(-9.896178e-02 -9.896177e-02 1.223759e-04)	(-9.895793e-02 -9.895791e-02 -1.766102e-05)	(-3.858452e-06 -3.858033e-06 1.400369e-04)
0.0163        	(-9.713013e-02 -9.713016e-02 1.107570e-04)	(-9.712635e-02 -9.712637e-02 -1.687064e-05)	(-3.784009e-06 -3.783592e-06 1.276276e-04)
0.0164        	(-9.525670e-02 -9.525667e-02 1.000505e-04)	(-9.525299e-02 -9.525295e-02 -1.590403e-05)	(-3.712605e-06 -3.712241e-06 1.159546e-04)
0.0165        	(-9.334974e-02 -9.334975e-02 9.035241e-05)	(-9.334610e-02 -9.334610e-02 -1.477622e-05)	(-3.646193e-06 -3.645855e-06 1.051286e-04)
0.0166        	(-9.141968e-02 -9.141967e-02 8.178248e-05)	(-9.141609e-02 -9.141609e-02 -1.347144e-05)	(-3.585989e-06 -3.585662e-06 9.525392e-05)
0.0167        	(-8.947812e-02 -8.947808e-02 7.443946e-05)	(-8.947459e-02 -8.947455e-02 -1.198713e-05)	(-3.532527e-06 -3.532261e-06 8.642659e-05)
0.0168        	(-8.753090e-02 -8.753093e-02 6.838922e-05)	(-8.752741e-02 -8.752744e-02 -1.034442e-05)	(-3.485834e-06 -3.485545e-06 7.873365e-05)
0.0169        	(-8.558883e-02 -8.558884e-02 6.370445e-05)	(-8.558539e-02 -8.558539e-02 -8.547557e-06)	(-3.445323e-06 -3.445001e-06 7.225201e-05)
0.017         	(-8.365639e-02 -8.365639e-02 6.042645e-05)	(-8.365298e-02 -8.365298e-02 -6.621097e-06)	(-3.409993e-06 -3.409658e-06 6.704754e-05)
0.0171        	(-8.174204e-02 -8.174205e-02 5.859438e-05)	(-8.173867e-02 -8.173867e-02 -4.579954e-06)	(-3.378575e-06 -3.378220e-06 6.317433e-05)
0.0172        	(-7.984875e-02 -7.984875e-02 5.819301e-05)	(-7.984540e-02 -7.984540e-02 -2.480995e-06)	(-3.349589e-06 -3.349227e-06 6.067400e-05)
0.0173        	(-7.798213e-02 -7.798212e-02 5.923616e-05)	(-7.797881e-02 -7.797880e-02 -3.394307e-07)	(-3.321499e-06 -3.321137e-06 5.957559e-05)
0.0174        	(-7.614799e-02 -7.614796e-02 6.171071e-05)	(-7.614470e-02 -7.614467e-02 1.816047e-06)	(-3.292788e-06 -3.292470e-06 5.989467e-05)
0.0175        	(-7.434503e-02 -7.434497e-02 6.555146e-05)	(-7.434176e-02 -7.434171e-02 3.918206e-06)	(-3.262090e-06 -3.261869e-06 6.163325e-05)
0.0176        	(-7.257309e-02 -7.257310e-02 7.072403e-05)	(-7.256986e-02 -7.256987e-02 5.944191e-06)	(-3.228329e-06 -3.228136e-06 6.477983e-05)
0.0177        	(-7.084042e-02 -7.084042e-02 7.717129e-05)	(-7.083723e-02 -7.083723e-02 7.861588e-06)	(-3.190635e-06 -3.190450e-06 6.930971e-05)
0.0178        	(-6.913962e-02 -6.913965e-02 8.480994e-05)	(-6.913647e-02 -6.913650e-02 9.624309e-06)	(-3.148488e-06 -3.148246e-06 7.518563e-05)
0.0179        	(-6.746962e-02 -6.746960e-02 9.356968e-05)	(-6.746652e-02 -6.746650e-02 1.121142e-05)	(-3.101649e-06 -3.101386e-06 8.235826e-05)
0.018         	(-6.583399e-02 -6.583404e-02 1.033601e-04)	(-6.583094e-02 -6.583099e-02 1.259549e-05)	(-3.050343e-06 -3.049977e-06 9.076459e-05)
0.0181        	(-6.422217e-02 -6.422211e-02 1.140696e-04)	(-6.421917e-02 -6.421912e-02 1.374020e-05)	(-2.994948e-06 -2.994572e-06 1.003294e-04)
0.0182        	(-6.263448e-02 -6.263446e-02 1.256376e-04)	(-6.263155e-02 -6.263153e-02 1.467098e-05)	(-2.936270e-06 -2.935909e-06 1.109666e-04)
0.0183        	(-6.106835e-02 -6.106835e-02 1.379342e-04)	(-6.106547e-02 -6.106548e-02 1.535462e-05)	(-2.875325e-06 -2.874955e-06 1.225796e-04)
0.0184        	(-5.951368e-02 -5.951369e-02 1.508578e-04)	(-5.951087e-02 -5.951088e-02 1.579502e-05)	(-2.813279e-06 -2.812888e-06 1.350628e-04)
0.0185        	(-5.796627e-02 -5.796621e-02 1.643052e-04)	(-5.796352e-02 -5.796345e-02 1.600248e-05)	(-2.751380e-06 -2.751069e-06 1.483028e-04)
0.0186        	(-5.642540e-02 -5.642541e-02 1.781823e-04)	(-5.642270e-02 -5.642272e-02 1.600307e-05)	(-2.691060e-06 -2.690768e-06 1.621792e-04)
0.0187        	(-5.487537e-02 -5.487536e-02 1.923560e-04)	(-5.487274e-02 -5.487272e-02 1.578962e-05)	(-2.633632e-06 -2.633354e-06 1.765664e-04)
0.0188        	(-5.331474e-02 -5.331473e-02 2.067238e-04)	(-5.331216e-02 -5.331215e-02 1.538943e-05)	(-2.580414e-06 -2.580138e-06 1.913343e-04)
0.0189        	(-5.173694e-02 -5.173694e-02 2.211919e-04)	(-5.173441e-02 -5.173441e-02 1.484131e-05)	(-2.532611e-06 -2.532321e-06 2.063506e-04)
0.019         	(-5.013529e-02 -5.013525e-02 2.356452e-04)	(-5.013280e-02 -5.013276e-02 1.416426e-05)	(-2.491213e-06 -2.490963e-06 2.214809e-04)
0.0191        	(-4.849784e-02 -4.849784e-02 2.499567e-04)	(-4.849538e-02 -4.849538e-02 1.336517e-05)	(-2.457160e-06 -2.456903e-06 2.365915e-04)
0.0192        	(-4.682165e-02 -4.682167e-02 2.640413e-04)	(-4.681922e-02 -4.681924e-02 1.249132e-05)	(-2.431162e-06 -2.430861e-06 2.515500e-04)
0.0193        	(-4.510155e-02 -4.510154e-02 2.777890e-04)	(-4.509914e-02 -4.509913e-02 1.156249e-05)	(-2.413670e-06 -2.413343e-06 2.662265e-04)
0.0194        	(-4.332516e-02 -4.332511e-02 2.911049e-04)	(-4.332276e-02 -4.332271e-02 1.060902e-05)	(-2.404921e-06 -2.404638e-06 2.804958e-04)
0.0195        	(-4.149164e-02 -4.149184e-02 3.038617e-04)	(-4.148924e-02 -4.148943e-02 9.623764e-06)	(-2.405193e-06 -2.404630e-06 2.942379e-04)
0.0196        	(-3.959602e-02 -3.959585e-02 3.160050e-04)	(-3.959360e-02 -3.959343e-02 8.665479e-06)	(-2.413976e-06 -2.413492e-06 3.073395e-04)
0.0197        	(-3.762672e-02 -3.762676e-02 3.274274e-04)	(-3.762429e-02 -3.762433e-02 7.732128e-06)	(-2.431177e-06 -2.430670e-06 3.196953e-04)
0.0198        	(-3.558509e-02 -3.558477e-02 3.380447e-04)	(-3.558263e-02 -3.558231e-02 6.836088e-06)	(-2.456024e-06 -2.455940e-06 3.312086e-04)
0.0199        	(-3.346180e-02 -3.346199e-02 3.477728e-04)	(-3.345931e-02 -3.345950e-02 5.980046e-06)	(-2.488277e-06 -2.488181e-06 3.417928e-04)
0.02          	(-3.126373e-02 -3.126390e-02 3.566033e-04)	(-3.126121e-02 -3.126138e-02 5.231738e-06)	(-2.527047e-06 -2.526676e-06 3.513715e-04)
