# Moment      
# CofR        : (5.000000e-01 1.000000e-01 0.000000e+00)
#
# Time        	(total_x total_y total_z)	(pressure_x pressure_y pressure_z)	(viscous_x viscous_y viscous_z)
0.0001        	(-2.052168e-05 1.948540e-05 -4.236962e-03)	(-1.833657e-05 8.263322e-06 -4.237271e-03)	(-2.185107e-06 1.122208e-05 3.081538e-07)
0.0002        	(-2.741122e-05 2.032732e-05 -5.342774e-03)	(-2.301580e-05 -2.246515e-06 -5.343246e-03)	(-4.395416e-06 2.257383e-05 4.719647e-07)
0.0003        	(-3.102511e-05 1.381302e-05 -6.085384e-03)	(-2.440672e-05 -2.017828e-05 -6.085969e-03)	(-6.618397e-06 3.399130e-05 5.845508e-07)
0.0004        	(-3.624231e-05 6.798111e-06 -6.965700e-03)	(-2.735858e-05 -3.882879e-05 -6.966350e-03)	(-8.883730e-06 4.562690e-05 6.495630e-07)
0.0005        	(-4.372557e-05 1.285254e-06 -7.979752e-03)	(-3.251986e-05 -5.626883e-05 -7.980427e-03)	(-1.120571e-05 5.755409e-05 6.748431e-07)
0.0006        	(-5.326570e-05 -2.102449e-06 -9.078219e-03)	(-3.968626e-05 -7.185015e-05 -9.078888e-03)	(-1.357944e-05 6.974770e-05 6.689371e-07)
0.0007        	(-6.502340e-05 -2.503648e-06 -1.024287e-02)	(-4.902745e-05 -8.466547e-05 -1.024351e-02)	(-1.599595e-05 8.216182e-05 6.403218e-07)
0.0008        	(-7.914415e-05 8.192836e-07 -1.146423e-02)	(-6.069619e-05 -9.393964e-05 -1.146483e-02)	(-1.844796e-05 9.475893e-05 5.968807e-07)
0.0009        	(-9.577521e-05 8.414272e-06 -1.273609e-02)	(-7.484604e-05 -9.909250e-05 -1.273664e-02)	(-2.092917e-05 1.075068e-04 5.453972e-07)
0.001         	(-1.150264e-04 2.058705e-05 -1.405399e-02)	(-9.159304e-05 -9.978625e-05 -1.405448e-02)	(-2.343335e-05 1.203733e-04 4.913125e-07)
0.0011        	(-1.369365e-04 3.742159e-05 -1.541343e-02)	(-1.109823e-04 -9.590454e-05 -1.541387e-02)	(-2.595418e-05 1.333261e-04 4.386986e-07)
0.0012        	(-1.614661e-04 5.882349e-05 -1.680904e-02)	(-1.329804e-04 -8.751079e-05 -1.680944e-02)	(-2.848564e-05 1.463343e-04 3.904584e-07)
0.0013        	(-1.886869e-04 8.477497e-05 -1.823775e-02)	(-1.576647e-04 -7.459439e-05 -1.823810e-02)	(-3.102223e-05 1.593694e-04 3.484089e-07)
0.0014        	(-2.185956e-04 1.151488e-04 -1.969527e-02)	(-1.850366e-04 -5.725710e-05 -1.969558e-02)	(-3.355897e-05 1.724059e-04 3.136142e-07)
0.0015        	(-2.510545e-04 1.496561e-04 -2.117465e-02)	(-2.149630e-04 -3.576523e-05 -2.117494e-02)	(-3.609150e-05 1.854213e-04 2.863760e-07)
0.0016        	(-2.861963e-04 1.883025e-04 -2.267511e-02)	(-2.475804e-04 -1.009291e-05 -2.267538e-02)	(-3.861590e-05 1.983954e-04 2.666321e-07)
0.0017        	(-3.239111e-04 2.308072e-04 -2.419092e-02)	(-2.827825e-04 1.949740e-05 -2.419117e-02)	(-4.112861e-05 2.113098e-04 2.539083e-07)
0.0018        	(-3.640489e-04 2.768574e-04 -2.571651e-02)	(-3.204227e-04 5.271050e-05 -2.571675e-02)	(-4.362622e-05 2.241469e-04 2.474226e-07)
0.0019        	(-4.069301e-04 3.266621e-04 -2.725559e-02)	(-3.608248e-04 8.977348e-05 -2.725584e-02)	(-4.610522e-05 2.368887e-04 2.463162e-07)
0.002         	(-4.519688e-04 3.794144e-04 -2.879535e-02)	(-4.034070e-04 1.298993e-04 -2.879560e-02)	(-4.856174e-05 2.495151e-04 2.496510e-07)
0.0021        	(-4.995264e-04 4.353844e-04 -3.034104e-02)	(-4.485349e-04 1.733805e-04 -3.034129e-02)	(-5.099149e-05 2.620040e-04 2.564367e-07)
0.0022        	(-5.493091e-04 4.940975e-04 -3.188636e-02)	(-4.959197e-04 2.197680e-04 -3.188662e-02)	(-5.338943e-05 2.743295e-04 2.658748e-07)
0.0023        	(-6.014788e-04 5.556355e-04 -3.343362e-02)	(-5.457291e-04 2.691745e-04 -3.343390e-02)	(-5.574963e-05 2.864610e-04 2.769102e-07)
0.0024        	(-6.555865e-04 6.193395e-04 -3.497468e-02)	(-5.975213e-04 3.209765e-04 -3.497497e-02)	(-5.806518e-05 2.983630e-04 2.888880e-07)
0.0025        	(-7.118769e-04 6.853860e-04 -3.651427e-02)	(-6.515489e-04 3.753915e-04 -3.651457e-02)	(-6.032808e-05 3.099945e-04 3.011785e-07)
0.0026        	(-7.701516e-04 7.534507e-04 -3.804914e-02)	(-7.076221e-04 4.321409e-04 -3.804945e-02)	(-6.252946e-05 3.213098e-04 3.132611e-07)
0.0027        	(-8.299902e-04 8.229535e-04 -3.957296e-02)	(-7.653303e-04 4.906932e-04 -3.957328e-02)	(-6.465984e-05 3.322603e-04 3.247918e-07)
0.0028        	(-8.918642e-04 8.943558e-04 -4.109498e-02)	(-8.251548e-04 5.515601e-04 -4.109532e-02)	(-6.670947e-05 3.427957e-04 3.352381e-07)
0.0029        	(-9.552259e-04 9.669356e-04 -4.260693e-02)	(-8.865570e-04 6.140678e-04 -4.260727e-02)	(-6.866891e-05 3.528678e-04 3.444924e-07)
0.003         	(-1.019982e-03 1.040539e-03 -4.410860e-02)	(-9.494521e-04 6.781067e-04 -4.410895e-02)	(-7.052948e-05 3.624319e-04 3.523884e-07)
0.0031        	(-1.112683e-03 1.339455e-03 -4.133661e-02)	(-1.042638e-03 9.795033e-04 -4.133689e-02)	(-7.004553e-05 3.599519e-04 2.813216e-07)
0.0032        	(-1.176596e-03 1.432730e-03 -4.168810e-02)	(-1.107188e-03 1.076050e-03 -4.168840e-02)	(-6.940782e-05 3.566803e-04 3.015618e-07)
0.0033        	(-1.239020e-03 1.502677e-03 -4.240402e-02)	(-1.170375e-03 1.149914e-03 -4.240434e-02)	(-6.864466e-05 3.527628e-04 3.175095e-07)
0.0034        	(-1.300172e-03 1.569401e-03 -4.297501e-02)	(-1.232441e-03 1.221331e-03 -4.297534e-02)	(-6.773080e-05 3.480702e-04 3.270702e-07)
0.0035        	(-1.359683e-03 1.632623e-03 -4.340119e-02)	(-1.293028e-03 1.290077e-03 -4.340152e-02)	(-6.665515e-05 3.425456e-04 3.276305e-07)
0.0036        	(-1.417591e-03 1.691517e-03 -4.373218e-02)	(-1.352165e-03 1.355285e-03 -4.373250e-02)	(-6.542615e-05 3.362326e-04 3.186441e-07)
0.0037        	(-1.474050e-03 1.746401e-03 -4.398912e-02)	(-1.409992e-03 1.417200e-03 -4.398942e-02)	(-6.405739e-05 3.292012e-04 3.005463e-07)
0.0038        	(-1.529042e-03 1.797736e-03 -4.418115e-02)	(-1.466480e-03 1.476217e-03 -4.418142e-02)	(-6.256212e-05 3.215194e-04 2.740382e-07)
0.0039        	(-1.582596e-03 1.845916e-03 -4.431684e-02)	(-1.521643e-03 1.532660e-03 -4.431708e-02)	(-6.095370e-05 3.132560e-04 2.411242e-07)
0.004         	(-1.634871e-03 1.891594e-03 -4.440345e-02)	(-1.575625e-03 1.587110e-03 -4.440365e-02)	(-5.924640e-05 3.044845e-04 2.040573e-07)
0.0041        	(-1.685752e-03 1.935046e-03 -4.444340e-02)	(-1.628297e-03 1.639765e-03 -4.444357e-02)	(-5.745505e-05 2.952809e-04 1.646981e-07)
0.0042        	(-1.735409e-03 1.976665e-03 -4.444672e-02)	(-1.679815e-03 1.690944e-03 -4.444684e-02)	(-5.559439e-05 2.857211e-04 1.255731e-07)
0.0043        	(-1.783896e-03 2.016797e-03 -4.441677e-02)	(-1.730217e-03 1.740919e-03 -4.441686e-02)	(-5.367866e-05 2.758782e-04 8.822550e-08)
0.0044        	(-1.831116e-03 2.055453e-03 -4.435727e-02)	(-1.779395e-03 1.789631e-03 -4.435733e-02)	(-5.172128e-05 2.658213e-04 5.404997e-08)
0.0045        	(-1.877132e-03 2.092821e-03 -4.427464e-02)	(-1.827397e-03 1.837206e-03 -4.427466e-02)	(-4.973488e-05 2.556153e-04 2.375202e-08)
0.0046        	(-1.921985e-03 2.129060e-03 -4.417302e-02)	(-1.874254e-03 1.883739e-03 -4.417302e-02)	(-4.773132e-05 2.453210e-04 -2.194897e-09)
0.0047        	(-1.965688e-03 2.164178e-03 -4.405610e-02)	(-1.919966e-03 1.929182e-03 -4.405607e-02)	(-4.572185e-05 2.349963e-04 -2.359814e-08)
0.0048        	(-2.008269e-03 2.198257e-03 -4.392818e-02)	(-1.964552e-03 1.973560e-03 -4.392814e-02)	(-4.371734e-05 2.246971e-04 -4.044574e-08)
0.0049        	(-2.049700e-03 2.231300e-03 -4.379008e-02)	(-2.007972e-03 2.016821e-03 -4.379003e-02)	(-4.172852e-05 2.144787e-04 -5.294957e-08)
0.005         	(-2.089985e-03 2.263285e-03 -4.364542e-02)	(-2.050219e-03 2.058888e-03 -4.364536e-02)	(-3.976636e-05 2.043975e-04 -6.112204e-08)
0.0051        	(-2.129349e-03 2.294487e-03 -4.349820e-02)	(-2.091506e-03 2.099975e-03 -4.349813e-02)	(-3.784221e-05 1.945118e-04 -6.543112e-08)
0.0052        	(-2.167527e-03 2.324636e-03 -4.334555e-02)	(-2.131559e-03 2.139752e-03 -4.334549e-02)	(-3.596818e-05 1.848840e-04 -6.583247e-08)
0.0053        	(-2.204883e-03 2.354140e-03 -4.319331e-02)	(-2.170726e-03 2.178559e-03 -4.319325e-02)	(-3.415731e-05 1.755812e-04 -6.283166e-08)
0.0054        	(-2.241310e-03 2.382924e-03 -4.304013e-02)	(-2.208887e-03 2.216249e-03 -4.304007e-02)	(-3.242359e-05 1.666753e-04 -5.680604e-08)
0.0055        	(-2.276907e-03 2.411146e-03 -4.288651e-02)	(-2.246125e-03 2.252903e-03 -4.288646e-02)	(-3.078188e-05 1.582426e-04 -4.814839e-08)
0.0056        	(-2.311806e-03 2.439007e-03 -4.273411e-02)	(-2.282558e-03 2.288643e-03 -4.273407e-02)	(-2.924787e-05 1.503639e-04 -3.725695e-08)
0.0057        	(-2.346107e-03 2.466683e-03 -4.258323e-02)	(-2.318270e-03 2.323563e-03 -4.258321e-02)	(-2.783742e-05 1.431205e-04 -2.455366e-08)
0.0058        	(-2.379869e-03 2.494316e-03 -4.243306e-02)	(-2.353303e-03 2.357723e-03 -4.243305e-02)	(-2.656618e-05 1.365929e-04 -1.050701e-08)
0.0059        	(-2.413169e-03 2.522060e-03 -4.228363e-02)	(-2.387720e-03 2.391203e-03 -4.228364e-02)	(-2.544903e-05 1.308574e-04 4.514884e-09)
0.006         	(-2.446200e-03 2.550184e-03 -4.213601e-02)	(-2.421701e-03 2.424202e-03 -4.213603e-02)	(-2.449921e-05 1.259819e-04 2.018887e-08)
0.0061        	(-2.478922e-03 2.578712e-03 -4.198789e-02)	(-2.455194e-03 2.456688e-03 -4.198792e-02)	(-2.372783e-05 1.220236e-04 3.625619e-08)
0.0062        	(-2.511394e-03 2.607744e-03 -4.183905e-02)	(-2.488251e-03 2.488719e-03 -4.183910e-02)	(-2.314327e-05 1.190251e-04 5.241564e-08)
0.0063        	(-2.543801e-03 2.637505e-03 -4.169038e-02)	(-2.521051e-03 2.520492e-03 -4.169045e-02)	(-2.275075e-05 1.170135e-04 6.848391e-08)
0.0064        	(-2.576067e-03 2.667915e-03 -4.153950e-02)	(-2.553515e-03 2.551917e-03 -4.153959e-02)	(-2.255210e-05 1.159979e-04 8.462806e-08)
0.0065        	(-2.608074e-03 2.698869e-03 -4.138385e-02)	(-2.585528e-03 2.582899e-03 -4.138395e-02)	(-2.254580e-05 1.159706e-04 1.004676e-07)
0.0066        	(-2.640096e-03 2.730623e-03 -4.122637e-02)	(-2.617369e-03 2.613716e-03 -4.122649e-02)	(-2.272712e-05 1.169069e-04 1.158596e-07)
0.0067        	(-2.671863e-03 2.762862e-03 -4.106219e-02)	(-2.648775e-03 2.644095e-03 -4.106232e-02)	(-2.308832e-05 1.187672e-04 1.308026e-07)
0.0068        	(-2.703350e-03 2.795533e-03 -4.089059e-02)	(-2.679731e-03 2.674034e-03 -4.089074e-02)	(-2.361924e-05 1.214990e-04 1.448868e-07)
0.0069        	(-2.734601e-03 2.828638e-03 -4.071210e-02)	(-2.710294e-03 2.703599e-03 -4.071226e-02)	(-2.430762e-05 1.250392e-04 1.578157e-07)
0.007         	(-2.765360e-03 2.861870e-03 -4.052251e-02)	(-2.740220e-03 2.732553e-03 -4.052268e-02)	(-2.513970e-05 1.293171e-04 1.691759e-07)
0.0071        	(-2.795666e-03 2.895236e-03 -4.032284e-02)	(-2.769565e-03 2.760980e-03 -4.032302e-02)	(-2.610065e-05 1.342561e-04 1.784092e-07)
0.0072        	(-2.825297e-03 2.928468e-03 -4.010999e-02)	(-2.798122e-03 2.788692e-03 -4.011018e-02)	(-2.717499e-05 1.397765e-04 1.848619e-07)
0.0073        	(-2.854143e-03 2.961407e-03 -3.988293e-02)	(-2.825796e-03 2.815609e-03 -3.988312e-02)	(-2.834697e-05 1.457972e-04 1.880267e-07)
0.0074        	(-2.882063e-03 2.993871e-03 -3.964061e-02)	(-2.852462e-03 2.841634e-03 -3.964079e-02)	(-2.960085e-05 1.522371e-04 1.873878e-07)
0.0075        	(-2.908871e-03 3.025643e-03 -3.938113e-02)	(-2.877950e-03 2.866627e-03 -3.938131e-02)	(-3.092107e-05 1.590161e-04 1.823409e-07)
0.0076        	(-2.934357e-03 3.056451e-03 -3.910264e-02)	(-2.902065e-03 2.890395e-03 -3.910281e-02)	(-3.229244e-05 1.660560e-04 1.726334e-07)
0.0077        	(-2.958336e-03 3.086056e-03 -3.880414e-02)	(-2.924636e-03 2.912775e-03 -3.880430e-02)	(-3.370017e-05 1.732806e-04 1.581971e-07)
0.0078        	(-2.980556e-03 3.114154e-03 -3.848350e-02)	(-2.945427e-03 2.933538e-03 -3.848364e-02)	(-3.512993e-05 1.806164e-04 1.391124e-07)
0.0079        	(-3.000823e-03 3.140481e-03 -3.813992e-02)	(-2.964255e-03 2.952489e-03 -3.814004e-02)	(-3.656781e-05 1.879920e-04 1.156795e-07)
0.008         	(-3.018835e-03 3.164664e-03 -3.777114e-02)	(-2.980835e-03 2.969325e-03 -3.777123e-02)	(-3.800039e-05 1.953385e-04 8.839775e-08)
0.0081        	(-3.034339e-03 3.186375e-03 -3.737566e-02)	(-2.994925e-03 2.983786e-03 -3.737572e-02)	(-3.941465e-05 2.025892e-04 5.797436e-08)
0.0082        	(-3.047019e-03 3.205222e-03 -3.695160e-02)	(-3.006221e-03 2.995543e-03 -3.695162e-02)	(-4.079800e-05 2.096797e-04 2.523077e-08)
0.0083        	(-3.056569e-03 3.220835e-03 -3.649706e-02)	(-3.014431e-03 3.004288e-03 -3.649705e-02)	(-4.213830e-05 2.165479e-04 -9.090100e-09)
0.0084        	(-3.062775e-03 3.232915e-03 -3.601130e-02)	(-3.019351e-03 3.009781e-03 -3.601126e-02)	(-4.342389e-05 2.231342e-04 -4.408554e-08)
0.0085        	(-3.065178e-03 3.240937e-03 -3.549126e-02)	(-3.020534e-03 3.011555e-03 -3.549118e-02)	(-4.464365e-05 2.293819e-04 -7.883446e-08)
0.0086        	(-3.063477e-03 3.244546e-03 -3.493477e-02)	(-3.017690e-03 3.009308e-03 -3.493466e-02)	(-4.578716e-05 2.352377e-04 -1.127032e-07)
0.0087        	(-3.057385e-03 3.243393e-03 -3.434126e-02)	(-3.010541e-03 3.002741e-03 -3.434112e-02)	(-4.684472e-05 2.406521e-04 -1.447979e-07)
0.0088        	(-3.046516e-03 3.237046e-03 -3.370753e-02)	(-2.998708e-03 2.991465e-03 -3.370736e-02)	(-4.780757e-05 2.455806e-04 -1.745181e-07)
0.0089        	(-3.030630e-03 3.225248e-03 -3.303369e-02)	(-2.981962e-03 2.975264e-03 -3.303349e-02)	(-4.866807e-05 2.499838e-04 -2.013091e-07)
0.009         	(-3.009086e-03 3.207278e-03 -3.231324e-02)	(-2.959667e-03 2.953448e-03 -3.231301e-02)	(-4.941975e-05 2.538291e-04 -2.246772e-07)
0.0091        	(-2.982058e-03 3.183329e-03 -3.155092e-02)	(-2.932000e-03 2.926239e-03 -3.155068e-02)	(-5.005748e-05 2.570902e-04 -2.442531e-07)
0.0092        	(-2.948835e-03 3.152669e-03 -3.074042e-02)	(-2.898257e-03 2.892921e-03 -3.074016e-02)	(-5.057769e-05 2.597487e-04 -2.600365e-07)
0.0093        	(-2.909114e-03 3.114976e-03 -2.987919e-02)	(-2.858136e-03 2.853181e-03 -2.987892e-02)	(-5.097834e-05 2.617945e-04 -2.718038e-07)
0.0094        	(-2.862849e-03 3.070194e-03 -2.896903e-02)	(-2.811590e-03 2.806969e-03 -2.896875e-02)	(-5.125896e-05 2.632250e-04 -2.796283e-07)
0.0095        	(-2.809636e-03 3.017936e-03 -2.800704e-02)	(-2.758215e-03 2.753890e-03 -2.800676e-02)	(-5.142077e-05 2.640465e-04 -2.836804e-07)
0.0096        	(-2.749161e-03 2.957900e-03 -2.699027e-02)	(-2.697694e-03 2.693627e-03 -2.698998e-02)	(-5.146650e-05 2.642729e-04 -2.843461e-07)
0.0097        	(-2.681377e-03 2.890053e-03 -2.591998e-02)	(-2.629977e-03 2.626128e-03 -2.591970e-02)	(-5.140038e-05 2.639256e-04 -2.821460e-07)
0.0098        	(-2.606001e-03 2.814139e-03 -2.479386e-02)	(-2.554773e-03 2.551105e-03 -2.479359e-02)	(-5.122803e-05 2.630335e-04 -2.777064e-07)
0.0099        	(-2.522713e-03 2.729879e-03 -2.360845e-02)	(-2.471757e-03 2.468248e-03 -2.360818e-02)	(-5.095627e-05 2.616310e-04 -2.719305e-07)
0.01          	(-2.431811e-03 2.637577e-03 -2.236949e-02)	(-2.381218e-03 2.377819e-03 -2.236923e-02)	(-5.059290e-05 2.597579e-04 -2.657537e-07)
0.0101        	(-2.332942e-03 2.536958e-03 -2.107140e-02)	(-2.282795e-03 2.279500e-03 -2.107114e-02)	(-5.014661e-05 2.574584e-04 -2.602218e-07)
0.0102        	(-2.226088e-03 2.428019e-03 -1.971551e-02)	(-2.176461e-03 2.173240e-03 -1.971526e-02)	(-4.962671e-05 2.547798e-04 -2.565496e-07)
0.0103        	(-2.111387e-03 2.310947e-03 -1.830387e-02)	(-2.062344e-03 2.059174e-03 -1.830362e-02)	(-4.904318e-05 2.517728e-04 -2.559960e-07)
0.0104        	(-1.988713e-03 2.185696e-03 -1.683278e-02)	(-1.940306e-03 1.937206e-03 -1.683252e-02)	(-4.840634e-05 2.484900e-04 -2.598242e-07)
0.0105        	(-1.858397e-03 2.052595e-03 -1.530797e-02)	(-1.810671e-03 1.807611e-03 -1.530770e-02)	(-4.772660e-05 2.449842e-04 -2.692009e-07)
0.0106        	(-1.720541e-03 1.911831e-03 -1.372904e-02)	(-1.673527e-03 1.670523e-03 -1.372876e-02)	(-4.701438e-05 2.413085e-04 -2.853558e-07)
0.0107        	(-1.575324e-03 1.763616e-03 -1.209717e-02)	(-1.529044e-03 1.526100e-03 -1.209686e-02)	(-4.627991e-05 2.375150e-04 -3.092977e-07)
0.0108        	(-1.422938e-03 1.608194e-03 -1.041340e-02)	(-1.377405e-03 1.374539e-03 -1.041306e-02)	(-4.553315e-05 2.336545e-04 -3.418550e-07)
0.0109        	(-1.263952e-03 1.446164e-03 -8.683628e-03)	(-1.219168e-03 1.216388e-03 -8.683244e-03)	(-4.478361e-05 2.297756e-04 -3.836287e-07)
0.011         	(-1.098686e-03 1.277883e-03 -6.909942e-03)	(-1.054646e-03 1.051958e-03 -6.909507e-03)	(-4.404041e-05 2.259250e-04 -4.350769e-07)
0.0111        	(-9.273578e-04 1.103629e-03 -5.092337e-03)	(-8.840458e-04 8.814827e-04 -5.091841e-03)	(-4.331205e-05 2.221461e-04 -4.962709e-07)
0.0112        	(-7.505771e-04 9.240215e-04 -3.236910e-03)	(-7.079707e-04 7.055419e-04 -3.236343e-03)	(-4.260637e-05 2.184796e-04 -5.668743e-07)
0.0113        	(-5.691940e-04 7.399427e-04 -1.351488e-03)	(-5.272634e-04 5.249801e-04 -1.350842e-03)	(-4.193060e-05 2.149627e-04 -6.463981e-07)
0.0114        	(-3.831753e-04 5.514035e-04 5.679528e-04)	(-3.418841e-04 3.397749e-04 5.686867e-04)	(-4.129114e-05 2.116286e-04 -7.339060e-07)
0.0115        	(-1.937092e-04 3.595917e-04 2.508647e-03)	(-1.530156e-04 1.510849e-04 2.509475e-03)	(-4.069359e-05 2.085068e-04 -8.281267e-07)
0.0116        	(-1.296927e-06 1.650414e-04 4.467763e-03)	(3.884573e-05 -4.058071e-05 4.468690e-03)	(-4.014266e-05 2.056221e-04 -9.275122e-07)
0.0117        	(1.935383e-04 -3.170991e-05 6.442551e-03)	(2.331805e-04 -2.347047e-04 6.443581e-03)	(-3.964216e-05 2.029948e-04 -1.030202e-06)
0.0118        	(3.898533e-04 -2.297174e-04 8.424287e-03)	(4.290483e-04 -4.303582e-04 8.425422e-03)	(-3.919497e-05 2.006409e-04 -1.134042e-06)
0.0119        	(5.868074e-04 -4.281170e-04 1.040628e-02)	(6.256104e-04 -6.266879e-04 1.040752e-02)	(-3.880299e-05 1.985709e-04 -1.236848e-06)
0.012         	(7.838227e-04 -6.263442e-04 1.238503e-02)	(8.222897e-04 -8.231345e-04 1.238636e-02)	(-3.846705e-05 1.967903e-04 -1.336094e-06)
0.0121        	(9.801189e-04 -8.236180e-04 1.435446e-02)	(1.018306e-03 -1.018917e-03 1.435589e-02)	(-3.818694e-05 1.952992e-04 -1.429259e-06)
0.0122        	(1.174736e-03 -1.018983e-03 1.630608e-02)	(1.212698e-03 -1.213075e-03 1.630759e-02)	(-3.796137e-05 1.940922e-04 -1.513778e-06)
0.0123        	(1.367061e-03 -1.211837e-03 1.823655e-02)	(1.404849e-03 -1.404996e-03 1.823814e-02)	(-3.778800e-05 1.931584e-04 -1.587302e-06)
0.0124        	(1.556070e-03 -1.401211e-03 2.013536e-02)	(1.593734e-03 -1.593692e-03 2.013700e-02)	(-3.766343e-05 1.924814e-04 -1.647239e-06)
0.0125        	(1.741183e-03 -1.586500e-03 2.199986e-02)	(1.778766e-03 -1.778540e-03 2.200155e-02)	(-3.758327e-05 1.920398e-04 -1.691411e-06)
0.0126        	(1.921725e-03 -1.767083e-03 2.382487e-02)	(1.959267e-03 -1.958890e-03 2.382659e-02)	(-3.754221e-05 1.918073e-04 -1.717999e-06)
0.0127        	(2.096826e-03 -1.942123e-03 2.560231e-02)	(2.134360e-03 -2.133876e-03 2.560404e-02)	(-3.753410e-05 1.917530e-04 -1.725405e-06)
0.0128        	(2.265877e-03 -2.111045e-03 2.732763e-02)	(2.303429e-03 -2.302886e-03 2.732934e-02)	(-3.755197e-05 1.918419e-04 -1.712395e-06)
0.0129        	(2.428124e-03 -2.273136e-03 2.899407e-02)	(2.465712e-03 -2.465171e-03 2.899575e-02)	(-3.758824e-05 1.920354e-04 -1.678111e-06)
0.013         	(2.583253e-03 -2.428123e-03 3.060085e-02)	(2.620888e-03 -2.620415e-03 3.060248e-02)	(-3.763477e-05 1.922920e-04 -1.622172e-06)
0.0131        	(2.730365e-03 -2.575120e-03 3.213768e-02)	(2.768048e-03 -2.767688e-03 3.213923e-02)	(-3.768303e-05 1.925680e-04 -1.544767e-06)
0.0132        	(2.869158e-03 -2.713907e-03 3.360435e-02)	(2.906882e-03 -2.906725e-03 3.360580e-02)	(-3.772420e-05 1.928178e-04 -1.446357e-06)
0.0133        	(2.999237e-03 -2.844100e-03 3.499705e-02)	(3.036986e-03 -3.037096e-03 3.499837e-02)	(-3.774937e-05 1.929954e-04 -1.327935e-06)
0.0134        	(3.120065e-03 -2.965191e-03 3.631015e-02)	(3.157815e-03 -3.158246e-03 3.631134e-02)	(-3.774967e-05 1.930547e-04 -1.191017e-06)
0.0135        	(3.231197e-03 -3.076773e-03 3.753967e-02)	(3.268913e-03 -3.269723e-03 3.754071e-02)	(-3.771639e-05 1.929501e-04 -1.037400e-06)
0.0136        	(3.332609e-03 -3.178861e-03 3.868654e-02)	(3.370251e-03 -3.371499e-03 3.868741e-02)	(-3.764114e-05 1.926376e-04 -8.693070e-07)
0.0137        	(3.424003e-03 -3.271160e-03 3.974724e-02)	(3.461519e-03 -3.463235e-03 3.974793e-02)	(-3.751597e-05 1.920751e-04 -6.893300e-07)
0.0138        	(3.504916e-03 -3.353241e-03 4.071633e-02)	(3.542249e-03 -3.544464e-03 4.071683e-02)	(-3.733351e-05 1.912236e-04 -5.002058e-07)
0.0139        	(3.575674e-03 -3.425460e-03 4.159846e-02)	(3.612761e-03 -3.615507e-03 4.159876e-02)	(-3.708706e-05 1.900475e-04 -3.048452e-07)
0.014         	(3.635749e-03 -3.487260e-03 4.238643e-02)	(3.672520e-03 -3.675775e-03 4.238654e-02)	(-3.677075e-05 1.885149e-04 -1.064232e-07)
0.0141        	(3.685468e-03 -3.539032e-03 4.308410e-02)	(3.721848e-03 -3.725631e-03 4.308401e-02)	(-3.637955e-05 1.865988e-04 9.204778e-08)
0.0142        	(3.724768e-03 -3.580695e-03 4.369006e-02)	(3.760678e-03 -3.764972e-03 4.368977e-02)	(-3.590936e-05 1.842765e-04 2.875433e-07)
0.0143        	(3.753661e-03 -3.612269e-03 4.420356e-02)	(3.789018e-03 -3.793800e-03 4.420309e-02)	(-3.535723e-05 1.815316e-04 4.771563e-07)
0.0144        	(3.772303e-03 -3.633901e-03 4.462461e-02)	(3.807025e-03 -3.812255e-03 4.462396e-02)	(-3.472142e-05 1.783538e-04 6.582175e-07)
0.0145        	(3.781019e-03 -3.645938e-03 4.495757e-02)	(3.815021e-03 -3.820677e-03 4.495674e-02)	(-3.400128e-05 1.747386e-04 8.283112e-07)
0.0146        	(3.779989e-03 -3.648545e-03 4.520187e-02)	(3.813186e-03 -3.819233e-03 4.520088e-02)	(-3.319732e-05 1.706874e-04 9.853539e-07)
0.0147        	(3.769314e-03 -3.641799e-03 4.535741e-02)	(3.801625e-03 -3.808007e-03 4.535628e-02)	(-3.231118e-05 1.662080e-04 1.127629e-06)
0.0148        	(3.749761e-03 -3.626494e-03 4.543200e-02)	(3.781106e-03 -3.787808e-03 4.543075e-02)	(-3.134566e-05 1.613138e-04 1.253939e-06)
0.0149        	(3.721150e-03 -3.602392e-03 4.542125e-02)	(3.751455e-03 -3.758416e-03 4.541989e-02)	(-3.030467e-05 1.560246e-04 1.363395e-06)
0.015         	(3.684390e-03 -3.570409e-03 4.533434e-02)	(3.713583e-03 -3.720775e-03 4.533288e-02)	(-2.919326e-05 1.503659e-04 1.455570e-06)
0.0151        	(3.639622e-03 -3.530654e-03 4.517128e-02)	(3.667640e-03 -3.675023e-03 4.516975e-02)	(-2.801751e-05 1.443689e-04 1.530458e-06)
0.0152        	(3.587350e-03 -3.483603e-03 4.493521e-02)	(3.614134e-03 -3.621673e-03 4.493362e-02)	(-2.678453e-05 1.380700e-04 1.588549e-06)
0.0153        	(3.528282e-03 -3.429938e-03 4.463314e-02)	(3.553784e-03 -3.561448e-03 4.463151e-02)	(-2.550235e-05 1.315109e-04 1.630661e-06)
0.0154        	(3.462686e-03 -3.369878e-03 4.426606e-02)	(3.486866e-03 -3.494615e-03 4.426441e-02)	(-2.417985e-05 1.247376e-04 1.657876e-06)
0.0155        	(3.391258e-03 -3.304089e-03 4.383974e-02)	(3.414084e-03 -3.421890e-03 4.383807e-02)	(-2.282668e-05 1.178002e-04 1.671715e-06)
0.0156        	(3.314536e-03 -3.233062e-03 4.335887e-02)	(3.335989e-03 -3.343815e-03 4.335720e-02)	(-2.145316e-05 1.107523e-04 1.673808e-06)
0.0157        	(3.233035e-03 -3.157268e-03 4.282730e-02)	(3.253105e-03 -3.260918e-03 4.282564e-02)	(-2.007015e-05 1.036506e-04 1.666016e-06)
0.0158        	(3.147392e-03 -3.077285e-03 4.225054e-02)	(3.166081e-03 -3.173839e-03 4.224889e-02)	(-1.868893e-05 9.655364e-05 1.650210e-06)
0.0159        	(3.058163e-03 -2.993623e-03 4.163324e-02)	(3.075484e-03 -3.083145e-03 4.163161e-02)	(-1.732111e-05 8.952195e-05 1.628263e-06)
0.016         	(2.965869e-03 -2.906744e-03 4.097962e-02)	(2.981847e-03 -2.989361e-03 4.097801e-02)	(-1.597844e-05 8.261666e-05 1.601971e-06)
0.0161        	(2.871170e-03 -2.817263e-03 4.029561e-02)	(2.885843e-03 -2.893163e-03 4.029404e-02)	(-1.467275e-05 7.589924e-05 1.573121e-06)
0.0162        	(2.774507e-03 -2.725557e-03 3.958471e-02)	(2.787923e-03 -2.794988e-03 3.958316e-02)	(-1.341573e-05 6.943049e-05 1.543173e-06)
0.0163        	(2.676459e-03 -2.632155e-03 3.885207e-02)	(2.688677e-03 -2.695425e-03 3.885055e-02)	(-1.221888e-05 6.326991e-05 1.513396e-06)
0.0164        	(2.577578e-03 -2.537559e-03 3.810266e-02)	(2.588671e-03 -2.595034e-03 3.810118e-02)	(-1.109330e-05 5.747512e-05 1.484861e-06)
0.0165        	(2.478273e-03 -2.442132e-03 3.733990e-02)	(2.488322e-03 -2.494233e-03 3.733844e-02)	(-1.004964e-05 5.210108e-05 1.458309e-06)
0.0166        	(2.379016e-03 -2.346303e-03 3.656787e-02)	(2.388114e-03 -2.393502e-03 3.656643e-02)	(-9.097903e-06 4.719946e-05 1.434233e-06)
0.0167        	(2.280297e-03 -2.250523e-03 3.579123e-02)	(2.288544e-03 -2.293341e-03 3.578981e-02)	(-8.247360e-06 4.281799e-05 1.412879e-06)
0.0168        	(2.182422e-03 -2.155065e-03 3.501238e-02)	(2.189928e-03 -2.194065e-03 3.501098e-02)	(-7.506423e-06 3.899987e-05 1.394190e-06)
0.0169        	(2.085825e-03 -2.060342e-03 3.423554e-02)	(2.092707e-03 -2.096126e-03 3.423416e-02)	(-6.882545e-06 3.578334e-05 1.377969e-06)
0.017         	(1.990763e-03 -1.966592e-03 3.346255e-02)	(1.997145e-03 -1.999793e-03 3.346119e-02)	(-6.382131e-06 3.320114e-05 1.363831e-06)
0.0171        	(1.897582e-03 -1.874144e-03 3.269682e-02)	(1.903592e-03 -1.905424e-03 3.269547e-02)	(-6.010460e-06 3.128019e-05 1.351253e-06)
0.0172        	(1.806438e-03 -1.783161e-03 3.193950e-02)	(1.812210e-03 -1.813203e-03 3.193816e-02)	(-5.771613e-06 3.004121e-05 1.339656e-06)
0.0173        	(1.717588e-03 -1.693894e-03 3.119285e-02)	(1.723257e-03 -1.723393e-03 3.119152e-02)	(-5.668459e-06 2.949869e-05 1.328420e-06)
0.0174        	(1.631260e-03 -1.606576e-03 3.045918e-02)	(1.636963e-03 -1.636237e-03 3.045787e-02)	(-5.702561e-06 2.966042e-05 1.316957e-06)
0.0175        	(1.547457e-03 -1.521239e-03 2.973798e-02)	(1.553331e-03 -1.551766e-03 2.973668e-02)	(-5.874167e-06 3.052746e-05 1.304726e-06)
0.0176        	(1.466246e-03 -1.437955e-03 2.902924e-02)	(1.472428e-03 -1.470049e-03 2.902795e-02)	(-6.182208e-06 3.209414e-05 1.291235e-06)
0.0177        	(1.387849e-03 -1.356982e-03 2.833617e-02)	(1.394473e-03 -1.391330e-03 2.833489e-02)	(-6.624323e-06 3.434821e-05 1.276162e-06)
0.0178        	(1.312112e-03 -1.278186e-03 2.765586e-02)	(1.319309e-03 -1.315458e-03 2.765460e-02)	(-7.196930e-06 3.727118e-05 1.259275e-06)
0.0179        	(1.239006e-03 -1.201578e-03 2.698784e-02)	(1.246901e-03 -1.242417e-03 2.698660e-02)	(-7.895257e-06 4.083856e-05 1.240529e-06)
0.018         	(1.168614e-03 -1.127268e-03 2.633362e-02)	(1.177327e-03 -1.172287e-03 2.633240e-02)	(-8.713197e-06 4.501903e-05 1.219955e-06)
0.0181        	(1.100649e-03 -1.055022e-03 2.568884e-02)	(1.110292e-03 -1.104797e-03 2.568764e-02)	(-9.643450e-06 4.977522e-05 1.197792e-06)
0.0182        	(1.035123e-03 -9.848692e-04 2.505378e-02)	(1.045801e-03 -1.039934e-03 2.505261e-02)	(-1.067764e-05 5.506427e-05 1.174329e-06)
0.0183        	(9.719050e-04 -9.167313e-04 2.442734e-02)	(9.837113e-04 -9.775695e-04 2.442619e-02)	(-1.180637e-05 6.083818e-05 1.149946e-06)
0.0184        	(9.107280e-04 -8.503844e-04 2.380548e-02)	(9.237474e-04 -9.174288e-04 2.380435e-02)	(-1.301938e-05 6.704447e-05 1.125117e-06)
0.0185        	(8.514370e-04 -7.857166e-04 2.318648e-02)	(8.657426e-04 -8.593434e-04 2.318537e-02)	(-1.430563e-05 7.362673e-05 1.100397e-06)
0.0186        	(7.939686e-04 -7.226951e-04 2.257016e-02)	(8.096220e-04 -8.032202e-04 2.256909e-02)	(-1.565342e-05 8.052511e-05 1.076279e-06)
0.0187        	(7.378922e-04 -6.609505e-04 2.195014e-02)	(7.549427e-04 -7.486275e-04 2.194909e-02)	(-1.705050e-05 8.767704e-05 1.053314e-06)
0.0188        	(6.831074e-04 -6.004187e-04 2.132589e-02)	(7.015916e-04 -6.954367e-04 2.132486e-02)	(-1.848426e-05 9.501799e-05 1.032028e-06)
0.0189        	(6.294355e-04 -5.409589e-04 2.069477e-02)	(6.493773e-04 -6.434409e-04 2.069376e-02)	(-1.994180e-05 1.024820e-04 1.012900e-06)
0.019         	(5.766563e-04 -4.823989e-04 2.005409e-02)	(5.980664e-04 -5.924014e-04 2.005310e-02)	(-2.141011e-05 1.100025e-04 9.963606e-07)
0.0191        	(5.244320e-04 -4.244490e-04 1.939914e-02)	(5.473082e-04 -5.419618e-04 1.939815e-02)	(-2.287618e-05 1.175128e-04 9.827362e-07)
0.0192        	(4.726718e-04 -3.670550e-04 1.872867e-02)	(4.969990e-04 -4.920021e-04 1.872770e-02)	(-2.432718e-05 1.249472e-04 9.723148e-07)
0.0193        	(4.212209e-04 -3.101056e-04 1.804062e-02)	(4.469714e-04 -4.423467e-04 1.803965e-02)	(-2.575052e-05 1.322411e-04 9.653054e-07)
0.0194        	(3.697729e-04 -2.533323e-04 1.733004e-02)	(3.969069e-04 -3.926647e-04 1.732908e-02)	(-2.713406e-05 1.393324e-04 9.618276e-07)
0.0195        	(3.182548e-04 -1.967086e-04 1.659676e-02)	(3.467210e-04 -3.428700e-04 1.659579e-02)	(-2.846620e-05 1.461614e-04 9.617974e-07)
0.0196        	(2.666295e-04 -1.402273e-04 1.583832e-02)	(2.963655e-04 -2.928991e-04 1.583736e-02)	(-2.973597e-05 1.526718e-04 9.653498e-07)
0.0197        	(2.145560e-04 -8.358424e-05 1.505071e-02)	(2.454892e-04 -2.423955e-04 1.504974e-02)	(-3.093320e-05 1.588113e-04 9.722186e-07)
0.0198        	(1.620897e-04 -2.688110e-05 1.423388e-02)	(1.941382e-04 -1.914131e-04 1.423289e-02)	(-3.204856e-05 1.645320e-04 9.823674e-07)
0.0199        	(1.091070e-04 3.000962e-05 1.338481e-02)	(1.421807e-04 -1.397812e-04 1.338382e-02)	(-3.307368e-05 1.697908e-04 9.952625e-07)
0.02          	(5.572061e-05 8.691980e-05 1.250558e-02)	(8.972183e-05 -8.763003e-05 1.250457e-02)	(-3.400122e-05 1.745498e-04 1.010634e-06)
