# Time forceX forceY forceZ normalForce
0.0001 0.00882164 0.00882164 2.25251e-05 -0.0138623
0.0001 0.00882164 0.00882164 2.25251e-05 -0.0138623
0.0002 0.0133339 0.0133339 4.51651e-05 -0.0209496
0.0002 0.0133339 0.0133339 4.51651e-05 -0.0209496
0.0003 0.0157292 0.0157292 6.79646e-05 -0.0247105
0.0003 0.0157292 0.0157292 6.79646e-05 -0.0247105
0.0004 0.0175488 0.0175488 9.11731e-05 -0.0275664
0.0004 0.0175488 0.0175488 9.11731e-05 -0.0275664
0.0005 0.0196249 0.0196249 0.00011495 -0.0308253
0.0005 0.0196249 0.0196249 0.00011495 -0.0308253
0.0006 0.0221467 0.0221467 0.000139266 -0.0347846
0.0006 0.0221467 0.0221467 0.000139266 -0.0347846
0.0007 0.0250012 0.0250012 0.000164028 -0.0392667
0.0007 0.0250012 0.0250012 0.000164028 -0.0392667
0.0008 0.0280354 0.0280354 0.000189146 -0.0440313
0.0008 0.0280354 0.0280354 0.000189146 -0.0440313
0.0009 0.0311625 0.0311625 0.000214547 -0.0489417
0.0009 0.0311625 0.0311625 0.000214547 -0.0489417
0.001 0.0343602 0.0343602 0.000240161 -0.0539628
0.001 0.0343602 0.0343602 0.000240161 -0.0539628
0.0011 0.0376371 0.0376371 0.000265919 -0.0591082
0.0011 0.0376371 0.0376371 0.000265919 -0.0591082
0.0012 0.0409973 0.0409973 0.00029176 -0.0643844
0.0012 0.0409973 0.0409973 0.00029176 -0.0643844
0.0013 0.0444364 0.0444364 0.000317624 -0.0697845
0.0013 0.0444364 0.0444364 0.000317624 -0.0697845
0.0014 0.0479416 0.0479416 0.000343464 -0.0752882
0.0014 0.0479416 0.0479416 0.000343464 -0.0752882
0.0015 0.0515011 0.0515011 0.000369241 -0.0808773
0.0015 0.0515011 0.0515011 0.000369241 -0.0808773
0.0016 0.055107 0.055107 0.000394917 -0.0865391
0.0016 0.055107 0.055107 0.000394917 -0.0865391
0.0017 0.0587439 0.0587439 0.000420459 -0.0922496
0.0017 0.0587439 0.0587439 0.000420459 -0.0922496
0.0018 0.0624057 0.0624057 0.000445833 -0.0979991
0.0018 0.0624057 0.0624057 0.000445833 -0.0979991
0.0019 0.0660929 0.0660929 0.000471006 -0.103789
0.0019 0.0660929 0.0660929 0.000471006 -0.103789
0.002 0.0697961 0.069796 0.000495941 -0.109604
0.002 0.0697961 0.069796 0.000495941 -0.109604
0.0021 0.0735022 0.0735022 0.000520599 -0.115423
0.0021 0.0735022 0.0735022 0.000520599 -0.115423
0.0022 0.0772148 0.0772148 0.000544934 -0.121252
0.0022 0.0772148 0.0772148 0.000544934 -0.121252
0.0023 0.0809216 0.0809215 0.000568893 -0.127073
0.0023 0.0809216 0.0809215 0.000568893 -0.127073
0.0024 0.0846234 0.0846234 0.000592409 -0.132885
0.0024 0.0846234 0.0846234 0.000592409 -0.132885
0.0025 0.0883193 0.0883193 0.000615403 -0.138689
0.0025 0.0883193 0.0883193 0.000615403 -0.138689
0.0026 0.0920032 0.0920032 0.000637786 -0.144473
0.0026 0.0920032 0.0920032 0.000637786 -0.144473
0.0027 0.0956747 0.0956748 0.000659461 -0.150238
0.0027 0.0956747 0.0956748 0.000659461 -0.150238
0.0028 0.0993303 0.0993302 0.000680327 -0.155978
0.0028 0.0993303 0.0993302 0.000680327 -0.155978
0.0029 0.102969 0.102969 0.000700287 -0.161693
0.0029 0.102969 0.102969 0.000700287 -0.161693
0.003 0.10659 0.10659 0.000719249 -0.167377
0.003 0.10659 0.10659 0.000719249 -0.167377
0.0031 0.101537 0.101537 0.000714956 -0.159433
0.0031 0.101537 0.101537 0.000714956 -0.159433
0.0032 0.100593 0.100593 0.00070916 -0.15795
0.0032 0.100593 0.100593 0.00070916 -0.15795
0.0033 0.101727 0.101727 0.000701936 -0.15973
0.0033 0.101727 0.101727 0.000701936 -0.15973
0.0034 0.103446 0.103446 0.000693093 -0.162432
0.0034 0.103446 0.103446 0.000693093 -0.162432
0.0035 0.10491 0.10491 0.000682528 -0.164731
0.0035 0.10491 0.10491 0.000682528 -0.164731
0.0036 0.105914 0.105914 0.000670322 -0.16631
0.0036 0.105914 0.105914 0.000670322 -0.16631
0.0037 0.106552 0.106552 0.000656632 -0.167312
0.0037 0.106552 0.106552 0.000656632 -0.167312
0.0038 0.106978 0.106978 0.000641625 -0.16798
0.0038 0.106978 0.106978 0.000641625 -0.16798
0.0039 0.107312 0.107312 0.00062545 -0.168506
0.0039 0.107312 0.107312 0.00062545 -0.168506
0.004 0.107562 0.107562 0.000608265 -0.168899
0.004 0.107562 0.107562 0.000608265 -0.168899
0.0041 0.107705 0.107705 0.000590223 -0.169124
0.0041 0.107705 0.107705 0.000590223 -0.169124
0.0042 0.107772 0.107772 0.000571477 -0.16923
0.0042 0.107772 0.107772 0.000571477 -0.16923
0.0043 0.107763 0.107763 0.000552175 -0.169217
0.0043 0.107763 0.107763 0.000552175 -0.169217
0.0044 0.107648 0.107648 0.00053245 -0.169037
0.0044 0.107648 0.107648 0.00053245 -0.169037
0.0045 0.107473 0.107473 0.000512433 -0.168763
0.0045 0.107473 0.107473 0.000512433 -0.168763
0.0046 0.107272 0.107272 0.000492241 -0.168448
0.0046 0.107272 0.107272 0.000492241 -0.168448
0.0047 0.10702 0.10702 0.000471981 -0.168053
0.0047 0.10702 0.10702 0.000471981 -0.168053
0.0048 0.106723 0.106723 0.000451763 -0.167587
0.0048 0.106723 0.106723 0.000451763 -0.167587
0.0049 0.106428 0.106428 0.000431689 -0.167125
0.0049 0.106428 0.106428 0.000431689 -0.167125
0.005 0.106111 0.106111 0.000411866 -0.166628
0.005 0.106111 0.106111 0.000411866 -0.166628
0.0051 0.105759 0.105759 0.000392407 -0.166074
0.0051 0.105759 0.105759 0.000392407 -0.166074
0.0052 0.105424 0.105424 0.000373432 -0.165549
0.0052 0.105424 0.105424 0.000373432 -0.165549
0.0053 0.105089 0.105089 0.000355067 -0.165023
0.0053 0.105089 0.105089 0.000355067 -0.165023
0.0054 0.104724 0.104724 0.000337453 -0.164451
0.0054 0.104724 0.104724 0.000337453 -0.164451
0.0055 0.104371 0.104371 0.000320739 -0.163897
0.0055 0.104371 0.104371 0.000320739 -0.163897
0.0056 0.104033 0.104033 0.000305082 -0.163367
0.0056 0.104033 0.104033 0.000305082 -0.163367
0.0057 0.103682 0.103682 0.000290645 -0.162816
0.0057 0.103682 0.103682 0.000290645 -0.162816
0.0058 0.103335 0.103335 0.000277587 -0.162271
0.0058 0.103335 0.103335 0.000277587 -0.162271
0.0059 0.103006 0.103006 0.000266062 -0.161753
0.0059 0.103006 0.103006 0.000266062 -0.161753
0.006 0.102672 0.102672 0.000256209 -0.161229
0.006 0.102672 0.102672 0.000256209 -0.161229
0.0061 0.102326 0.102326 0.000248142 -0.160686
0.0061 0.102326 0.102326 0.000248142 -0.160686
0.0062 0.102002 0.102002 0.000241951 -0.160177
0.0062 0.102002 0.102002 0.000241951 -0.160177
0.0063 0.101681 0.101681 0.00023769 -0.159673
0.0063 0.101681 0.101681 0.00023769 -0.159673
0.0064 0.101339 0.101339 0.000235385 -0.159135
0.0064 0.101339 0.101339 0.000235385 -0.159135
0.0065 0.101002 0.101002 0.000235016 -0.158606
0.0065 0.101002 0.101002 0.000235016 -0.158606
0.0066 0.100669 0.100669 0.000236541 -0.158082
0.0066 0.100669 0.100669 0.000236541 -0.158082
0.0067 0.100316 0.100316 0.000239883 -0.157529
0.0067 0.100316 0.100316 0.000239883 -0.157529
0.0068 0.0999458 0.0999459 0.000244939 -0.156947
0.0068 0.0999458 0.0999459 0.000244939 -0.156947
0.0069 0.0995727 0.0995727 0.000251584 -0.15636
0.0069 0.0995727 0.0995727 0.000251584 -0.15636
0.007 0.0991806 0.0991806 0.000259678 -0.155744
0.007 0.0991806 0.0991806 0.000259678 -0.155744
0.0071 0.09876 0.09876 0.000269072 -0.155084
0.0071 0.09876 0.09876 0.000269072 -0.155084
0.0072 0.0983112 0.0983113 0.000279607 -0.154378
0.0072 0.0983112 0.0983113 0.000279607 -0.154378
0.0073 0.097847 0.097847 0.000291125 -0.153649
0.0073 0.097847 0.097847 0.000291125 -0.153649
0.0074 0.0973466 0.0973466 0.000303465 -0.152863
0.0074 0.0973466 0.0973466 0.000303465 -0.152863
0.0075 0.0967994 0.0967994 0.000316472 -0.152004
0.0075 0.0967994 0.0967994 0.000316472 -0.152004
0.0076 0.0962208 0.0962209 0.000329993 -0.151095
0.0076 0.0962208 0.0962209 0.000329993 -0.151095
0.0077 0.0955998 0.0955998 0.000343878 -0.150119
0.0077 0.0955998 0.0955998 0.000343878 -0.150119
0.0078 0.0949314 0.0949314 0.000357985 -0.14907
0.0078 0.0949314 0.0949314 0.000357985 -0.14907
0.0079 0.0942089 0.0942089 0.000372176 -0.147935
0.0079 0.0942089 0.0942089 0.000372176 -0.147935
0.008 0.0934251 0.0934251 0.000386318 -0.146704
0.008 0.0934251 0.0934251 0.000386318 -0.146704
0.0081 0.0925914 0.0925914 0.000400277 -0.145395
0.0081 0.0925914 0.0925914 0.000400277 -0.145395
0.0082 0.0916928 0.0916927 0.000413931 -0.143983
0.0082 0.0916928 0.0916927 0.000413931 -0.143983
0.0083 0.0907186 0.0907186 0.00042716 -0.142454
0.0083 0.0907186 0.0907186 0.00042716 -0.142454
0.0084 0.0896748 0.0896748 0.000439844 -0.140815
0.0084 0.0896748 0.0896748 0.000439844 -0.140815
0.0085 0.0885514 0.0885514 0.000451875 -0.13905
0.0085 0.0885514 0.0885514 0.000451875 -0.13905
0.0086 0.087354 0.087354 0.000463147 -0.13717
0.0086 0.087354 0.087354 0.000463147 -0.13717
0.0087 0.0860664 0.0860665 0.000473561 -0.135148
0.0087 0.0860664 0.0860665 0.000473561 -0.135148
0.0088 0.0846791 0.0846791 0.000483032 -0.13297
0.0088 0.0846791 0.0846791 0.000483032 -0.13297
0.0089 0.0832067 0.0832067 0.000491482 -0.130658
0.0089 0.0832067 0.0832067 0.000491482 -0.130658
0.009 0.0816349 0.0816349 0.000498843 -0.128189
0.009 0.0816349 0.0816349 0.000498843 -0.128189
0.0091 0.0799511 0.0799511 0.000505064 -0.125545
0.0091 0.0799511 0.0799511 0.000505064 -0.125545
0.0092 0.0781624 0.0781624 0.000510108 -0.122736
0.0092 0.0781624 0.0781624 0.000510108 -0.122736
0.0093 0.0762604 0.0762604 0.000513957 -0.119749
0.0093 0.0762604 0.0762604 0.000513957 -0.119749
0.0094 0.0742449 0.0742449 0.000516605 -0.116585
0.0094 0.0742449 0.0742449 0.000516605 -0.116585
0.0095 0.0720989 0.0720989 0.000518063 -0.113215
0.0095 0.0720989 0.0720989 0.000518063 -0.113215
0.0096 0.0698301 0.0698301 0.000518358 -0.109652
0.0096 0.0698301 0.0698301 0.000518358 -0.109652
0.0097 0.0674379 0.0674379 0.000517543 -0.105895
0.0097 0.0674379 0.0674379 0.000517543 -0.105895
0.0098 0.0649087 0.0649087 0.000515665 -0.101923
0.0098 0.0649087 0.0649087 0.000515665 -0.101923
0.0099 0.0622464 0.0622464 0.000512806 -0.0977429
0.0099 0.0622464 0.0622464 0.000512806 -0.0977429
0.01 0.0594437 0.0594437 0.000509041 -0.0933417
0.01 0.0594437 0.0594437 0.000509041 -0.0933417
0.0101 0.0565004 0.0565004 0.000504463 -0.0887198
0.0101 0.0565004 0.0565004 0.000504463 -0.0887198
0.0102 0.0534208 0.0534207 0.000499172 -0.0838838
0.0102 0.0534208 0.0534207 0.000499172 -0.0838838
0.0103 0.0501939 0.0501938 0.000493269 -0.0788165
0.0103 0.0501939 0.0501938 0.000493269 -0.0788165
0.0104 0.046826 0.046826 0.000486858 -0.0735277
0.0104 0.046826 0.046826 0.000486858 -0.0735277
0.0105 0.0433181 0.0433181 0.000480048 -0.0680191
0.0105 0.0433181 0.0433181 0.000480048 -0.0680191
0.0106 0.039666 0.039666 0.00047294 -0.0622838
0.0106 0.039666 0.039666 0.00047294 -0.0622838
0.0107 0.0358754 0.0358754 0.000465638 -0.0563311
0.0107 0.0358754 0.0358754 0.000465638 -0.0563311
0.0108 0.0319463 0.0319462 0.000458245 -0.050161
0.0108 0.0319463 0.0319462 0.000458245 -0.050161
0.0109 0.0278871 0.0278871 0.000450864 -0.0437868
0.0109 0.0278871 0.0278871 0.000450864 -0.0437868
0.011 0.0236961 0.0236961 0.000443594 -0.0372058
0.011 0.0236961 0.0236961 0.000443594 -0.0372058
0.0111 0.0193835 0.0193835 0.000436527 -0.0304337
0.0111 0.0193835 0.0193835 0.000436527 -0.0304337
0.0112 0.0149519 0.0149519 0.000429746 -0.023475
0.0112 0.0149519 0.0149519 0.000429746 -0.023475
0.0113 0.0104124 0.0104123 0.000423327 -0.0163466
0.0113 0.0104124 0.0104123 0.000423327 -0.0163466
0.0114 0.00577648 0.00577646 0.000417338 -0.00906694
0.0114 0.00577648 0.00577646 0.000417338 -0.00906694
0.0115 0.00104677 0.0010467 0.00041184 -0.00164004
0.0115 0.00104677 0.0010467 0.00041184 -0.00164004
0.0116 -0.00376072 -0.00376074 0.000406882 0.00590888
0.0116 -0.00376072 -0.00376074 0.000406882 0.00590888
0.0117 -0.00863889 -0.00863891 0.000402505 0.0135688
0.0117 -0.00863889 -0.00863891 0.000402505 0.0135688
0.0118 -0.0135713 -0.0135713 0.000398742 0.0213137
0.0118 -0.0135713 -0.0135713 0.000398742 0.0213137
0.0119 -0.0185448 -0.0185448 0.000395609 0.0291233
0.0119 -0.0185448 -0.0185448 0.000395609 0.0291233
0.012 -0.0235475 -0.0235475 0.000393118 0.0369787
0.012 -0.0235475 -0.0235475 0.000393118 0.0369787
0.0121 -0.028561 -0.028561 0.000391265 0.0448509
0.0121 -0.028561 -0.028561 0.000391265 0.0448509
0.0122 -0.0335728 -0.0335728 0.000390039 0.0527205
0.0122 -0.0335728 -0.0335728 0.000390039 0.0527205
0.0123 -0.0385636 -0.0385636 0.000389412 0.060557
0.0123 -0.0385636 -0.0385636 0.000389412 0.060557
0.0124 -0.0435206 -0.0435206 0.000389348 0.0683407
0.0124 -0.0435206 -0.0435206 0.000389348 0.0683407
0.0125 -0.0484244 -0.0484244 0.000389799 0.0760406
0.0125 -0.0484244 -0.0484244 0.000389799 0.0760406
0.0126 -0.053258 -0.053258 0.000390706 0.0836302
0.0126 -0.053258 -0.053258 0.000390706 0.0836302
0.0127 -0.0580087 -0.0580087 0.000392001 0.0910897
0.0127 -0.0580087 -0.0580087 0.000392001 0.0910897
0.0128 -0.0626557 -0.0626557 0.000393604 0.0983864
0.0128 -0.0626557 -0.0626557 0.000393604 0.0983864
0.0129 -0.067184 -0.067184 0.000395432 0.105497
0.0129 -0.067184 -0.067184 0.000395432 0.105497
0.013 -0.0715807 -0.0715807 0.00039739 0.1124
0.013 -0.0715807 -0.0715807 0.00039739 0.1124
0.0131 -0.0758289 -0.0758289 0.000399383 0.119071
0.0131 -0.0758289 -0.0758289 0.000399383 0.119071
0.0132 -0.0799128 -0.0799127 0.000401307 0.125483
0.0132 -0.0799128 -0.0799127 0.000401307 0.125483
0.0133 -0.0838205 -0.0838204 0.000403058 0.131619
0.0133 -0.0838205 -0.0838204 0.000403058 0.131619
0.0134 -0.0875393 -0.0875392 0.000404537 0.137458
0.0134 -0.0875393 -0.0875392 0.000404537 0.137458
0.0135 -0.0910566 -0.0910566 0.000405633 0.142981
0.0135 -0.0910566 -0.0910566 0.000405633 0.142981
0.0136 -0.0943616 -0.0943616 0.00040625 0.14817
0.0136 -0.0943616 -0.0943616 0.00040625 0.14817
0.0137 -0.0974485 -0.0974485 0.000406289 0.153017
0.0137 -0.0974485 -0.0974485 0.000406289 0.153017
0.0138 -0.100308 -0.100308 0.00040566 0.157508
0.0138 -0.100308 -0.100308 0.00040566 0.157508
0.0139 -0.102933 -0.102933 0.000404281 0.16163
0.0139 -0.102933 -0.102933 0.000404281 0.16163
0.014 -0.105313 -0.105313 0.000402078 0.165368
0.014 -0.105313 -0.105313 0.000402078 0.165368
0.0141 -0.107452 -0.107452 0.000398984 0.168728
0.0141 -0.107452 -0.107452 0.000398984 0.168728
0.0142 -0.109346 -0.109346 0.000394954 0.171703
0.0142 -0.109346 -0.109346 0.000394954 0.171703
0.0143 -0.110993 -0.110993 0.000389942 0.17429
0.0143 -0.110993 -0.110993 0.000389942 0.17429
0.0144 -0.112357 -0.112357 0.000383934 0.176432
0.0144 -0.112357 -0.112357 0.000383934 0.176432
0.0145 -0.11345 -0.11345 0.00037688 0.178147
0.0145 -0.11345 -0.11345 0.00037688 0.178147
0.0146 -0.114418 -0.114418 0.000368788 0.179668
0.0146 -0.114418 -0.114418 0.000368788 0.179668
0.0147 -0.11503 -0.11503 0.000359658 0.180628
0.0147 -0.11503 -0.11503 0.000359658 0.180628
0.0148 -0.115465 -0.115465 0.000349516 0.181311
0.0148 -0.115465 -0.115465 0.000349516 0.181311
0.0149 -0.115669 -0.115669 0.000338406 0.181631
0.0149 -0.115669 -0.115669 0.000338406 0.181631
0.015 -0.115633 -0.115633 0.000326376 0.181575
0.015 -0.115633 -0.115633 0.000326376 0.181575
0.0151 -0.11538 -0.11538 0.000313491 0.181178
0.0151 -0.11538 -0.11538 0.000313491 0.181178
0.0152 -0.114929 -0.114929 0.000299825 0.180471
0.0152 -0.114929 -0.114929 0.000299825 0.180471
0.0153 -0.114294 -0.114294 0.000285472 0.179474
0.0153 -0.114294 -0.114294 0.000285472 0.179474
0.0154 -0.113478 -0.113478 0.000270526 0.178194
0.0154 -0.113478 -0.113478 0.000270526 0.178194
0.0155 -0.112493 -0.112493 0.000255098 0.176647
0.0155 -0.112493 -0.112493 0.000255098 0.176647
0.0156 -0.111358 -0.111358 0.000239307 0.174864
0.0156 -0.111358 -0.111358 0.000239307 0.174864
0.0157 -0.110084 -0.110084 0.000223279 0.172864
0.0157 -0.110084 -0.110084 0.000223279 0.172864
0.0158 -0.108682 -0.108682 0.000207145 0.170663
0.0158 -0.108682 -0.108682 0.000207145 0.170663
0.0159 -0.107165 -0.107165 0.000191042 0.16828
0.0159 -0.107165 -0.107165 0.000191042 0.16828
0.016 -0.105547 -0.105547 0.00017511 0.165739
0.016 -0.105547 -0.105547 0.00017511 0.165739
0.0161 -0.103847 -0.103847 0.000159488 0.163071
0.0161 -0.103847 -0.103847 0.000159488 0.163071
0.0162 -0.102069 -0.102069 0.000144317 0.160279
0.0162 -0.102069 -0.102069 0.000144317 0.160279
0.0163 -0.100236 -0.100236 0.000129738 0.1574
0.0163 -0.100236 -0.100236 0.000129738 0.1574
0.0164 -0.0983531 -0.0983531 0.000115879 0.154444
0.0164 -0.0983531 -0.0983531 0.000115879 0.154444
0.0165 -0.0964355 -0.0964355 0.000102877 0.151433
0.0165 -0.0964355 -0.0964355 0.000102877 0.151433
0.0166 -0.0944962 -0.0944962 9.08498e-05 0.148387
0.0166 -0.0944962 -0.0944962 9.08498e-05 0.148387
0.0167 -0.0925482 -0.0925482 7.99134e-05 0.145328
0.0167 -0.0925482 -0.0925482 7.99134e-05 0.145328
0.0168 -0.0906004 -0.0906004 7.01754e-05 0.14227
0.0168 -0.0906004 -0.0906004 7.01754e-05 0.14227
0.0169 -0.088657 -0.088657 6.17305e-05 0.139218
0.0169 -0.088657 -0.088657 6.17305e-05 0.139218
0.017 -0.0867262 -0.0867263 5.46618e-05 0.136187
0.017 -0.0867262 -0.0867263 5.46618e-05 0.136187
0.0171 -0.0848167 -0.0848167 4.90392e-05 0.133188
0.0171 -0.0848167 -0.0848167 4.90392e-05 0.133188
0.0172 -0.0829352 -0.0829352 4.49211e-05 0.130234
0.0172 -0.0829352 -0.0829352 4.49211e-05 0.130234
0.0173 -0.0810842 -0.0810842 4.23484e-05 0.127328
0.0173 -0.0810842 -0.0810842 4.23484e-05 0.127328
0.0174 -0.0792693 -0.0792693 4.13539e-05 0.124478
0.0174 -0.0792693 -0.0792693 4.13539e-05 0.124478
0.0175 -0.0774938 -0.0774938 4.19456e-05 0.12169
0.0175 -0.0774938 -0.0774938 4.19456e-05 0.12169
0.0176 -0.0757563 -0.0757563 4.41239e-05 0.118962
0.0176 -0.0757563 -0.0757563 4.41239e-05 0.118962
0.0177 -0.0740622 -0.0740622 4.78759e-05 0.116301
0.0177 -0.0740622 -0.0740622 4.78759e-05 0.116301
0.0178 -0.0724046 -0.0724046 5.31675e-05 0.113698
0.0178 -0.0724046 -0.0724046 5.31675e-05 0.113698
0.0179 -0.0707826 -0.0707826 5.99548e-05 0.111151
0.0179 -0.0707826 -0.0707826 5.99548e-05 0.111151
0.018 -0.0692139 -0.0692139 6.8175e-05 0.108688
0.018 -0.0692139 -0.0692139 6.8175e-05 0.108688
0.0181 -0.0676808 -0.0676808 7.77461e-05 0.106281
0.0181 -0.0676808 -0.0676808 7.77461e-05 0.106281
0.0182 -0.0661682 -0.0661682 8.85806e-05 0.103906
0.0182 -0.0661682 -0.0661682 8.85806e-05 0.103906
0.0183 -0.0646804 -0.0646805 0.000100582 0.10157
0.0183 -0.0646804 -0.0646805 0.000100582 0.10157
0.0184 -0.0632071 -0.0632071 0.000113639 0.0992561
0.0184 -0.0632071 -0.0632071 0.000113639 0.0992561
0.0185 -0.0617524 -0.0617524 0.000127631 0.0969715
0.0185 -0.0617524 -0.0617524 0.000127631 0.0969715
0.0186 -0.0603085 -0.0603085 0.000142429 0.094704
0.0186 -0.0603085 -0.0603085 0.000142429 0.094704
0.0187 -0.0588665 -0.0588665 0.000157896 0.0924393
0.0187 -0.0588665 -0.0588665 0.000157896 0.0924393
0.0188 -0.0574211 -0.0574211 0.000173887 0.0901694
0.0188 -0.0574211 -0.0574211 0.000173887 0.0901694
0.0189 -0.0559597 -0.0559597 0.000190256 0.0878741
0.0189 -0.0559597 -0.0559597 0.000190256 0.0878741
0.019 -0.0544784 -0.0544783 0.000206851 0.0855477
0.019 -0.0544784 -0.0544783 0.000206851 0.0855477
0.0191 -0.0529672 -0.0529672 0.000223522 0.0831745
0.0191 -0.0529672 -0.0529672 0.000223522 0.0831745
0.0192 -0.0514164 -0.0514164 0.000240115 0.0807388
0.0192 -0.0514164 -0.0514164 0.000240115 0.0807388
0.0193 -0.04983 -0.04983 0.000256483 0.0782474
0.0193 -0.04983 -0.04983 0.000256483 0.0782474
0.0194 -0.0481914 -0.0481914 0.000272482 0.0756739
0.0194 -0.0481914 -0.0481914 0.000272482 0.0756739
0.0195 -0.046497 -0.046497 0.000287973 0.0730129
0.0195 -0.046497 -0.046497 0.000287973 0.0730129
0.0196 -0.0447402 -0.0447402 0.000302822 0.0702538
0.0196 -0.0447402 -0.0447402 0.000302822 0.0702538
0.0197 -0.0429145 -0.0429145 0.000316907 0.0673866
0.0197 -0.0429145 -0.0429145 0.000316907 0.0673866
0.0198 -0.0410119 -0.0410119 0.000330111 0.0643986
0.0198 -0.0410119 -0.0410119 0.000330111 0.0643986
0.0199 -0.0390349 -0.0390349 0.000342333 0.0612938
0.0199 -0.0390349 -0.0390349 0.000342333 0.0612938
0.02 -0.0369723 -0.0369723 0.000353477 0.0580547
0.02 -0.0369723 -0.0369723 0.000353477 0.0580547
