# Time Dx Dy Dz magD
0.0002 0 7.52757e-10 -1.05314e-09 1.29451e-09
0.0002 0 7.52757e-10 -1.05314e-09 1.29451e-09
0.0004 0 4.32817e-09 -1.05224e-08 1.13778e-08
0.0004 0 4.32817e-09 -1.05224e-08 1.13778e-08
0.0006 0 1.41841e-08 -5.46278e-08 5.64392e-08
0.0006 0 1.41841e-08 -5.46278e-08 5.64392e-08
0.0008 0 3.56281e-08 -1.95572e-07 1.98791e-07
0.0008 0 3.56281e-08 -1.95572e-07 1.98791e-07
0.001 0 7.6534e-08 -5.42714e-07 5.48084e-07
0.001 0 7.6534e-08 -5.42714e-07 5.48084e-07
0.0012 0 1.4773e-07 -1.24628e-06 1.255e-06
0.0012 0 1.4773e-07 -1.24628e-06 1.255e-06
0.0014 0 2.63097e-07 -2.4711e-06 2.48506e-06
0.0014 0 2.63097e-07 -2.4711e-06 2.48506e-06
0.0016 0 4.40209e-07 -4.36001e-06 4.38218e-06
0.0016 0 4.40209e-07 -4.36001e-06 4.38218e-06
0.0018 0 7.01064e-07 -7.00208e-06 7.03709e-06
0.0018 0 7.01064e-07 -7.00208e-06 7.03709e-06
0.002 0 1.07328e-06 -1.0417e-05 1.04722e-05
0.002 0 1.07328e-06 -1.0417e-05 1.04722e-05
0.0022 0 1.5911e-06 -1.4558e-05 1.46447e-05
0.0022 0 1.5911e-06 -1.4558e-05 1.46447e-05
0.0024 0 2.296e-06 -1.93271e-05 1.9463e-05
0.0024 0 2.296e-06 -1.93271e-05 1.9463e-05
0.0026 0 3.2369e-06 -2.45952e-05 2.48072e-05
0.0026 0 3.2369e-06 -2.45952e-05 2.48072e-05
0.0028 0 4.46967e-06 -3.0219e-05 3.05477e-05
0.0028 0 4.46967e-06 -3.0219e-05 3.05477e-05
0.003 0 6.05625e-06 -3.60523e-05 3.65574e-05
0.003 0 6.05625e-06 -3.60523e-05 3.65574e-05
0.0032 0 8.06143e-06 -4.19502e-05 4.27178e-05
0.0032 0 8.06143e-06 -4.19502e-05 4.27178e-05
0.0034 0 1.05495e-05 -4.77649e-05 4.8916e-05
0.0034 0 1.05495e-05 -4.77649e-05 4.8916e-05
0.0036 0 1.35797e-05 -5.33325e-05 5.50342e-05
0.0036 0 1.35797e-05 -5.33325e-05 5.50342e-05
0.0038 0 1.72007e-05 -5.84563e-05 6.09344e-05
0.0038 0 1.72007e-05 -5.84563e-05 6.09344e-05
0.004 0 2.14457e-05 -6.28974e-05 6.6453e-05
0.004 0 2.14457e-05 -6.28974e-05 6.6453e-05
0.0042 0 2.63268e-05 -6.63851e-05 7.14148e-05
0.0042 0 2.63268e-05 -6.63851e-05 7.14148e-05
0.0044 0 3.18321e-05 -6.86477e-05 7.56689e-05
0.0044 0 3.18321e-05 -6.86477e-05 7.56689e-05
0.0046 0 3.79235e-05 -6.9454e-05 7.91331e-05
0.0046 0 3.79235e-05 -6.9454e-05 7.91331e-05
0.0048 0 4.45348e-05 -6.86491e-05 8.18294e-05
0.0048 0 4.45348e-05 -6.86491e-05 8.18294e-05
0.005 0 5.15709e-05 -6.61722e-05 8.38947e-05
0.005 0 5.15709e-05 -6.61722e-05 8.38947e-05
0.0052 0 5.89061e-05 -6.20554e-05 8.55617e-05
0.0052 0 5.89061e-05 -6.20554e-05 8.55617e-05
0.0054 0 6.63846e-05 -5.64078e-05 8.71134e-05
0.0054 0 6.63846e-05 -5.64078e-05 8.71134e-05
0.0056 0 7.38196e-05 -4.93941e-05 8.88206e-05
0.0056 0 7.38196e-05 -4.93941e-05 8.88206e-05
0.0058 0 8.09966e-05 -4.12162e-05 9.08803e-05
0.0058 0 8.09966e-05 -4.12162e-05 9.08803e-05
0.006 0 8.76782e-05 -3.20991e-05 9.33693e-05
0.006 0 8.76782e-05 -3.20991e-05 9.33693e-05
0.0062 0 9.36116e-05 -2.22838e-05 9.62273e-05
0.0062 0 9.36116e-05 -2.22838e-05 9.62273e-05
0.0064 0 9.85424e-05 -1.20239e-05 9.92732e-05
0.0064 0 9.85424e-05 -1.20239e-05 9.92732e-05
0.0066 0 0.000102234 -1.58468e-06 0.000102246
0.0066 0 0.000102234 -1.58468e-06 0.000102246
0.0068 0 0.000104492 8.76242e-06 0.000104858
0.0068 0 0.000104492 8.76242e-06 0.000104858
0.007 0 0.000105188 1.87493e-05 0.000106846
0.007 0 0.000105188 1.87493e-05 0.000106846
0.0072 0 0.000104252 2.81305e-05 0.00010798
0.0072 0 0.000104252 2.81305e-05 0.00010798
0.0074 0 0.000101645 3.66857e-05 0.000108063
0.0074 0 0.000101645 3.66857e-05 0.000108063
0.0076 0 9.73907e-05 4.4213e-05 0.000106957
0.0076 0 9.73907e-05 4.4213e-05 0.000106957
0.0078 0 9.16008e-05 5.05466e-05 0.000104622
0.0078 0 9.16008e-05 5.05466e-05 0.000104622
0.008 0 8.44521e-05 5.55729e-05 0.000101096
0.008 0 8.44521e-05 5.55729e-05 0.000101096
0.0082 0 7.6169e-05 5.92302e-05 9.6488e-05
0.0082 0 7.6169e-05 5.92302e-05 9.6488e-05
0.0084 0 6.70087e-05 6.15073e-05 9.09577e-05
0.0084 0 6.70087e-05 6.15073e-05 9.09577e-05
0.0086 0 5.7248e-05 6.24391e-05 8.47111e-05
0.0086 0 5.7248e-05 6.24391e-05 8.47111e-05
0.0088 0 4.71711e-05 6.21018e-05 7.79855e-05
0.0088 0 4.71711e-05 6.21018e-05 7.79855e-05
0.009 0 3.70593e-05 6.0605e-05 7.10377e-05
0.009 0 3.70593e-05 6.0605e-05 7.10377e-05
0.0092 0 2.71822e-05 5.80842e-05 6.41299e-05
0.0092 0 2.71822e-05 5.80842e-05 6.41299e-05
0.0094 0 1.77883e-05 5.46932e-05 5.75132e-05
0.0094 0 1.77883e-05 5.46932e-05 5.75132e-05
0.0096 0 9.09933e-06 5.05966e-05 5.14083e-05
0.0096 0 9.09933e-06 5.05966e-05 5.14083e-05
0.0098 0 1.3029e-06 4.59639e-05 4.59823e-05
0.0098 0 1.3029e-06 4.59639e-05 4.59823e-05
0.01 0 -5.45787e-06 4.09636e-05 4.13256e-05
0.01 0 -5.45787e-06 4.09636e-05 4.13256e-05
0.0102 0 -1.10888e-05 3.57576e-05 3.74375e-05
0.0102 0 -1.10888e-05 3.57576e-05 3.74375e-05
0.0104 0 -1.55576e-05 3.04953e-05 3.42345e-05
0.0104 0 -1.55576e-05 3.04953e-05 3.42345e-05
0.0106 0 -1.88938e-05 2.53079e-05 3.15827e-05
0.0106 0 -1.88938e-05 2.53079e-05 3.15827e-05
0.0108 0 -2.11883e-05 2.02989e-05 2.93427e-05
0.0108 0 -2.11883e-05 2.02989e-05 2.93427e-05
0.011 0 -2.25746e-05 1.55383e-05 2.74053e-05
0.011 0 -2.25746e-05 1.55383e-05 2.74053e-05
0.0112 0 -2.32043e-05 1.10623e-05 2.57063e-05
0.0112 0 -2.32043e-05 1.10623e-05 2.57063e-05
0.0114 0 -2.32263e-05 6.88228e-06 2.42245e-05
0.0114 0 -2.32263e-05 6.88228e-06 2.42245e-05
0.0116 0 -2.27966e-05 2.99363e-06 2.29923e-05
0.0116 0 -2.27966e-05 2.99363e-06 2.29923e-05
0.0118 0 -2.20863e-05 -6.24238e-07 2.20951e-05
0.0118 0 -2.20863e-05 -6.24238e-07 2.20951e-05
0.012 0 -2.12624e-05 -4.00578e-06 2.16365e-05
0.012 0 -2.12624e-05 -4.00578e-06 2.16365e-05
0.0122 0 -2.04871e-05 -7.19579e-06 2.17141e-05
0.0122 0 -2.04871e-05 -7.19579e-06 2.17141e-05
0.0124 0 -1.99054e-05 -1.02442e-05 2.23868e-05
0.0124 0 -1.99054e-05 -1.02442e-05 2.23868e-05
0.0126 0 -1.96296e-05 -1.31999e-05 2.3655e-05
0.0126 0 -1.96296e-05 -1.31999e-05 2.3655e-05
0.0128 0 -1.97444e-05 -1.61048e-05 2.54795e-05
0.0128 0 -1.97444e-05 -1.61048e-05 2.54795e-05
0.013 0 -2.02989e-05 -1.89882e-05 2.77956e-05
0.013 0 -2.02989e-05 -1.89882e-05 2.77956e-05
0.0132 0 -2.13129e-05 -2.18656e-05 3.05343e-05
0.0132 0 -2.13129e-05 -2.18656e-05 3.05343e-05
0.0134 0 -2.27782e-05 -2.47323e-05 3.36234e-05
0.0134 0 -2.27782e-05 -2.47323e-05 3.36234e-05
0.0136 0 -2.46647e-05 -2.75642e-05 3.69883e-05
0.0136 0 -2.46647e-05 -2.75642e-05 3.69883e-05
0.0138 0 -2.69258e-05 -3.03184e-05 4.05488e-05
0.0138 0 -2.69258e-05 -3.03184e-05 4.05488e-05
0.014 0 -2.95036e-05 -3.29348e-05 4.42172e-05
0.014 0 -2.95036e-05 -3.29348e-05 4.42172e-05
0.0142 0 -3.23338e-05 -3.53396e-05 4.78995e-05
0.0142 0 -3.23338e-05 -3.53396e-05 4.78995e-05
0.0144 0 -3.53496e-05 -3.74493e-05 5.1498e-05
0.0144 0 -3.53496e-05 -3.74493e-05 5.1498e-05
0.0146 0 -3.84844e-05 -3.91757e-05 5.49162e-05
0.0146 0 -3.84844e-05 -3.91757e-05 5.49162e-05
0.0148 0 -4.16746e-05 -4.04308e-05 5.8064e-05
0.0148 0 -4.16746e-05 -4.04308e-05 5.8064e-05
0.015 0 -4.48605e-05 -4.11322e-05 6.08631e-05
0.015 0 -4.48605e-05 -4.11322e-05 6.08631e-05
0.0152 0 -4.79866e-05 -4.12079e-05 6.32519e-05
0.0152 0 -4.79866e-05 -4.12079e-05 6.32519e-05
0.0154 0 -5.10012e-05 -4.06008e-05 6.51885e-05
0.0154 0 -5.10012e-05 -4.06008e-05 6.51885e-05
0.0156 0 -5.3856e-05 -3.92711e-05 6.66535e-05
0.0156 0 -5.3856e-05 -3.92711e-05 6.66535e-05
0.0158 0 -5.65051e-05 -3.71998e-05 6.7651e-05
0.0158 0 -5.65051e-05 -3.71998e-05 6.7651e-05
0.016 0 -5.89045e-05 -3.43901e-05 6.82087e-05
0.016 0 -5.89045e-05 -3.43901e-05 6.82087e-05
0.0162 0 -6.1011e-05 -3.08681e-05 6.83753e-05
0.0162 0 -6.1011e-05 -3.08681e-05 6.83753e-05
0.0164 0 -6.27816e-05 -2.66832e-05 6.82168e-05
0.0164 0 -6.27816e-05 -2.66832e-05 6.82168e-05
0.0166 0 -6.41752e-05 -2.19081e-05 6.78116e-05
0.0166 0 -6.41752e-05 -2.19081e-05 6.78116e-05
0.0168 0 -6.51578e-05 -1.66367e-05 6.72482e-05
0.0168 0 -6.51578e-05 -1.66367e-05 6.72482e-05
0.017 0 -6.57072e-05 -1.09786e-05 6.66181e-05
0.017 0 -6.57072e-05 -1.09786e-05 6.66181e-05
0.0172 0 -6.58046e-05 -5.05136e-06 6.59982e-05
0.0172 0 -6.58046e-05 -5.05136e-06 6.59982e-05
0.0174 0 -6.54142e-05 1.02197e-06 6.54222e-05
0.0174 0 -6.54142e-05 1.02197e-06 6.54222e-05
0.0176 0 -6.44932e-05 7.1085e-06 6.48838e-05
0.0176 0 -6.44932e-05 7.1085e-06 6.48838e-05
0.0178 0 -6.30088e-05 1.30676e-05 6.43496e-05
0.0178 0 -6.30088e-05 1.30676e-05 6.43496e-05
0.018 0 -6.09499e-05 1.87602e-05 6.37718e-05
0.018 0 -6.09499e-05 1.87602e-05 6.37718e-05
0.0182 0 -5.83216e-05 2.40566e-05 6.30883e-05
0.0182 0 -5.83216e-05 2.40566e-05 6.30883e-05
0.0184 0 -5.51413e-05 2.88403e-05 6.22281e-05
0.0184 0 -5.51413e-05 2.88403e-05 6.22281e-05
0.0186 0 -5.14387e-05 3.30104e-05 6.11198e-05
0.0186 0 -5.14387e-05 3.30104e-05 6.11198e-05
0.0188 0 -4.72555e-05 3.64842e-05 5.97007e-05
0.0188 0 -4.72555e-05 3.64842e-05 5.97007e-05
0.019 0 -4.26445e-05 3.91994e-05 5.79236e-05
0.019 0 -4.26445e-05 3.91994e-05 5.79236e-05
0.0192 0 -3.76685e-05 4.11157e-05 5.57622e-05
0.0192 0 -3.76685e-05 4.11157e-05 5.57622e-05
0.0194 0 -3.23996e-05 4.22152e-05 5.32152e-05
0.0194 0 -3.23996e-05 4.22152e-05 5.32152e-05
0.0196 0 -2.69162e-05 4.25023e-05 5.03084e-05
0.0196 0 -2.69162e-05 4.25023e-05 5.03084e-05
0.0198 0 -2.13023e-05 4.20026e-05 4.70957e-05
0.0198 0 -2.13023e-05 4.20026e-05 4.70957e-05
0.02 0 -1.56439e-05 4.07611e-05 4.366e-05
0.02 0 -1.56439e-05 4.07611e-05 4.366e-05
