# Force       
# CofR        : (5.000000e-01 1.000000e-01 0.000000e+00)
#
# Time        	(total_x total_y total_z)	(pressure_x pressure_y pressure_z)	(viscous_x viscous_y viscous_z)
2.5e-05       	(3.075592e-03 3.075592e-03 3.722071e-06)	(3.076077e-03 3.076077e-03 -2.123817e-06)	(-4.850638e-07 -4.850648e-07 5.845888e-06)
5e-05         	(5.924442e-03 5.924442e-03 4.777256e-06)	(5.925045e-03 5.925045e-03 -6.563085e-06)	(-6.030617e-07 -6.030650e-07 1.134034e-05)
7.5e-05       	(8.504531e-03 8.504531e-03 5.412074e-06)	(8.505266e-03 8.505266e-03 -1.151222e-05)	(-7.351277e-07 -7.351329e-07 1.692429e-05)
0.0001        	(1.070298e-02 1.070298e-02 5.827751e-06)	(1.070383e-02 1.070383e-02 -1.684435e-05)	(-8.545763e-07 -8.545838e-07 2.267210e-05)
0.000125      	(1.244106e-02 1.244106e-02 5.620493e-06)	(1.244203e-02 1.244203e-02 -2.287792e-05)	(-9.644633e-07 -9.644731e-07 2.849841e-05)
0.00015       	(1.371395e-02 1.371395e-02 4.310007e-06)	(1.371502e-02 1.371502e-02 -2.997158e-05)	(-1.070388e-06 -1.070400e-06 3.428158e-05)
0.000175      	(1.457440e-02 1.457440e-02 1.476992e-06)	(1.457557e-02 1.457558e-02 -3.846181e-05)	(-1.174156e-06 -1.174171e-06 3.993880e-05)
0.0002        	(1.510192e-02 1.510192e-02 -3.101755e-06)	(1.510319e-02 1.510319e-02 -4.855905e-05)	(-1.274734e-06 -1.274752e-06 4.545729e-05)
0.000225      	(1.538071e-02 1.538071e-02 -9.387934e-06)	(1.538208e-02 1.538208e-02 -6.027471e-05)	(-1.370106e-06 -1.370127e-06 5.088678e-05)
0.00025       	(1.548933e-02 1.548933e-02 -1.713073e-05)	(1.549079e-02 1.549079e-02 -7.343869e-05)	(-1.458244e-06 -1.458268e-06 5.630796e-05)
0.000275      	(1.549955e-02 1.549955e-02 -2.597989e-05)	(1.550109e-02 1.550109e-02 -8.777706e-05)	(-1.537539e-06 -1.537565e-06 6.179717e-05)
0.0003        	(1.547562e-02 1.547562e-02 -3.559825e-05)	(1.547722e-02 1.547722e-02 -1.030000e-04)	(-1.606902e-06 -1.606930e-06 6.740177e-05)
0.000325      	(1.547514e-02 1.547514e-02 -4.572317e-05)	(1.547680e-02 1.547680e-02 -1.188549e-04)	(-1.665689e-06 -1.665718e-06 7.313174e-05)
0.00035       	(1.554632e-02 1.554632e-02 -5.617136e-05)	(1.554803e-02 1.554803e-02 -1.351373e-04)	(-1.713726e-06 -1.713757e-06 7.896593e-05)
0.000375      	(1.572399e-02 1.572399e-02 -6.681035e-05)	(1.572574e-02 1.572574e-02 -1.516770e-04)	(-1.751179e-06 -1.751211e-06 8.486666e-05)
0.0004        	(1.602945e-02 1.602945e-02 -7.752140e-05)	(1.603123e-02 1.603123e-02 -1.683170e-04)	(-1.778563e-06 -1.778597e-06 9.079555e-05)
0.000425      	(1.646899e-02 1.646899e-02 -8.817308e-05)	(1.647079e-02 1.647079e-02 -1.848976e-04)	(-1.796634e-06 -1.796668e-06 9.672452e-05)
0.00045       	(1.703618e-02 1.703618e-02 -9.861787e-05)	(1.703799e-02 1.703799e-02 -2.012596e-04)	(-1.806364e-06 -1.806399e-06 1.026418e-04)
0.000475      	(1.771484e-02 1.771484e-02 -1.087082e-04)	(1.771665e-02 1.771665e-02 -2.172586e-04)	(-1.808836e-06 -1.808872e-06 1.085504e-04)
0.0005        	(1.848283e-02 1.848283e-02 -1.183209e-04)	(1.848464e-02 1.848464e-02 -2.327850e-04)	(-1.805158e-06 -1.805195e-06 1.144641e-04)
0.000525      	(1.931560e-02 1.931560e-02 -1.273812e-04)	(1.931740e-02 1.931740e-02 -2.477822e-04)	(-1.796355e-06 -1.796393e-06 1.204011e-04)
0.00055       	(2.018901e-02 2.018901e-02 -1.358788e-04)	(2.019079e-02 2.019079e-02 -2.622572e-04)	(-1.783333e-06 -1.783373e-06 1.263783e-04)
0.000575      	(2.108126e-02 2.108126e-02 -1.438717e-04)	(2.108303e-02 2.108303e-02 -2.762799e-04)	(-1.766781e-06 -1.766821e-06 1.324083e-04)
0.0006        	(2.197402e-02 2.197402e-02 -1.514741e-04)	(2.197577e-02 2.197577e-02 -2.899713e-04)	(-1.747222e-06 -1.747263e-06 1.384972e-04)
0.000625      	(2.285280e-02 2.285280e-02 -1.588348e-04)	(2.285453e-02 2.285453e-02 -3.034803e-04)	(-1.724984e-06 -1.725025e-06 1.446454e-04)
0.00065       	(2.370702e-02 2.370702e-02 -1.661079e-04)	(2.370872e-02 2.370872e-02 -3.169571e-04)	(-1.700293e-06 -1.700335e-06 1.508492e-04)
0.000675      	(2.452979e-02 2.452979e-02 -1.734233e-04)	(2.453146e-02 2.453146e-02 -3.305256e-04)	(-1.673276e-06 -1.673319e-06 1.571023e-04)
0.0007        	(2.531769e-02 2.531769e-02 -1.808646e-04)	(2.531934e-02 2.531934e-02 -3.442621e-04)	(-1.644049e-06 -1.644094e-06 1.633976e-04)
0.000725      	(2.607056e-02 2.607056e-02 -1.884550e-04)	(2.607218e-02 2.607218e-02 -3.581835e-04)	(-1.612743e-06 -1.612789e-06 1.697285e-04)
0.00075       	(2.679115e-02 2.679115e-02 -1.961552e-04)	(2.679273e-02 2.679273e-02 -3.722450e-04)	(-1.579535e-06 -1.579582e-06 1.760897e-04)
0.000775      	(2.748480e-02 2.748479e-02 -2.038726e-04)	(2.748634e-02 2.748634e-02 -3.863498e-04)	(-1.544674e-06 -1.544721e-06 1.824772e-04)
0.0008        	(2.815895e-02 2.815895e-02 -2.114774e-04)	(2.816046e-02 2.816045e-02 -4.003656e-04)	(-1.508463e-06 -1.508507e-06 1.888882e-04)
0.000825      	(2.882243e-02 2.882243e-02 -2.188260e-04)	(2.882390e-02 2.882390e-02 -4.141468e-04)	(-1.471246e-06 -1.471289e-06 1.953209e-04)
0.00085       	(2.948473e-02 2.948473e-02 -2.257813e-04)	(2.948616e-02 2.948616e-02 -4.275552e-04)	(-1.433400e-06 -1.433441e-06 2.017739e-04)
0.000875      	(3.015567e-02 3.015567e-02 -2.322283e-04)	(3.015707e-02 3.015707e-02 -4.404741e-04)	(-1.395268e-06 -1.395312e-06 2.082458e-04)
0.0009        	(3.084252e-02 3.084252e-02 -2.381166e-04)	(3.084388e-02 3.084388e-02 -4.528537e-04)	(-1.357199e-06 -1.357245e-06 2.147371e-04)
0.000925      	(3.155495e-02 3.155496e-02 -2.434422e-04)	(3.155627e-02 3.155628e-02 -4.646870e-04)	(-1.319317e-06 -1.319367e-06 2.212447e-04)
0.00095       	(3.229720e-02 3.229721e-02 -2.482209e-04)	(3.229848e-02 3.229849e-02 -4.759892e-04)	(-1.281859e-06 -1.281904e-06 2.277683e-04)
0.000975      	(3.307176e-02 3.307176e-02 -2.524511e-04)	(3.307301e-02 3.307301e-02 -4.867572e-04)	(-1.245114e-06 -1.245159e-06 2.343062e-04)
0.001         	(3.387870e-02 3.387869e-02 -2.561626e-04)	(3.387991e-02 3.387990e-02 -4.970191e-04)	(-1.209288e-06 -1.209331e-06 2.408565e-04)
0.001025      	(3.471652e-02 3.471652e-02 -2.594360e-04)	(3.471770e-02 3.471769e-02 -5.068535e-04)	(-1.174471e-06 -1.174511e-06 2.474175e-04)
0.00105       	(3.558259e-02 3.558259e-02 -2.623938e-04)	(3.558373e-02 3.558373e-02 -5.163807e-04)	(-1.140482e-06 -1.140532e-06 2.539869e-04)
0.001075      	(3.647199e-02 3.647200e-02 -2.650874e-04)	(3.647310e-02 3.647311e-02 -5.256502e-04)	(-1.107377e-06 -1.107431e-06 2.605628e-04)
0.0011        	(3.737885e-02 3.737886e-02 -2.675485e-04)	(3.737992e-02 3.737994e-02 -5.346921e-04)	(-1.075233e-06 -1.075295e-06 2.671436e-04)
0.001125      	(3.829698e-02 3.829699e-02 -2.697991e-04)	(3.829802e-02 3.829804e-02 -5.435273e-04)	(-1.044082e-06 -1.044151e-06 2.737282e-04)
0.00115       	(3.922082e-02 3.922083e-02 -2.718807e-04)	(3.922183e-02 3.922184e-02 -5.521960e-04)	(-1.013783e-06 -1.013858e-06 2.803153e-04)
0.001175      	(4.014546e-02 4.014547e-02 -2.738249e-04)	(4.014645e-02 4.014645e-02 -5.607282e-04)	(-9.841356e-07 -9.842192e-07 2.869033e-04)
0.0012        	(4.106573e-02 4.106573e-02 -2.755576e-04)	(4.106668e-02 4.106669e-02 -5.690497e-04)	(-9.553541e-07 -9.554423e-07 2.934921e-04)
0.001225      	(4.197856e-02 4.197856e-02 -2.770577e-04)	(4.197949e-02 4.197949e-02 -5.771395e-04)	(-9.274783e-07 -9.275699e-07 3.000817e-04)
0.00125       	(4.288253e-02 4.288253e-02 -2.783149e-04)	(4.288343e-02 4.288343e-02 -5.849868e-04)	(-9.005246e-07 -9.006102e-07 3.066720e-04)
0.001275      	(4.377713e-02 4.377712e-02 -2.792998e-04)	(4.377801e-02 4.377799e-02 -5.925626e-04)	(-8.745496e-07 -8.746309e-07 3.132628e-04)
0.0013        	(4.466331e-02 4.466330e-02 -2.800001e-04)	(4.466416e-02 4.466414e-02 -5.998539e-04)	(-8.496020e-07 -8.496847e-07 3.198538e-04)
0.001325      	(4.554261e-02 4.554260e-02 -2.803800e-04)	(4.554344e-02 4.554343e-02 -6.068249e-04)	(-8.257969e-07 -8.258757e-07 3.264449e-04)
0.00135       	(4.641804e-02 4.641803e-02 -2.804406e-04)	(4.641884e-02 4.641884e-02 -6.134761e-04)	(-8.031542e-07 -8.032322e-07 3.330356e-04)
0.001375      	(4.729318e-02 4.729318e-02 -2.802030e-04)	(4.729396e-02 4.729396e-02 -6.198285e-04)	(-7.817345e-07 -7.818140e-07 3.396255e-04)
0.0014        	(4.817171e-02 4.817171e-02 -2.797060e-04)	(4.817247e-02 4.817247e-02 -6.259202e-04)	(-7.615580e-07 -7.616408e-07 3.462142e-04)
0.001425      	(4.905577e-02 4.905578e-02 -2.789167e-04)	(4.905652e-02 4.905653e-02 -6.317178e-04)	(-7.426876e-07 -7.427723e-07 3.528011e-04)
0.00145       	(4.994597e-02 4.994598e-02 -2.777381e-04)	(4.994670e-02 4.994671e-02 -6.371235e-04)	(-7.252820e-07 -7.253697e-07 3.593854e-04)
0.001475      	(5.084342e-02 5.084344e-02 -2.761536e-04)	(5.084413e-02 5.084414e-02 -6.421202e-04)	(-7.094199e-07 -7.095352e-07 3.659666e-04)
0.0015        	(5.175065e-02 5.175067e-02 -2.742619e-04)	(5.175135e-02 5.175137e-02 -6.468059e-04)	(-6.951399e-07 -6.952682e-07 3.725440e-04)
0.001525      	(5.266794e-02 5.266795e-02 -2.720578e-04)	(5.266862e-02 5.266863e-02 -6.511746e-04)	(-6.824083e-07 -6.825378e-07 3.791168e-04)
0.00155       	(5.359426e-02 5.359426e-02 -2.694936e-04)	(5.359493e-02 5.359493e-02 -6.551776e-04)	(-6.713245e-07 -6.714525e-07 3.856840e-04)
0.001575      	(5.452970e-02 5.452969e-02 -2.666541e-04)	(5.453037e-02 5.453035e-02 -6.588990e-04)	(-6.618960e-07 -6.620200e-07 3.922449e-04)
0.0016        	(5.547302e-02 5.547299e-02 -2.635593e-04)	(5.547367e-02 5.547364e-02 -6.623581e-04)	(-6.541612e-07 -6.542735e-07 3.987988e-04)
0.001625      	(5.642339e-02 5.642335e-02 -2.602976e-04)	(5.642403e-02 5.642400e-02 -6.656425e-04)	(-6.480020e-07 -6.481002e-07 4.053449e-04)
0.00165       	(5.737897e-02 5.737894e-02 -2.568742e-04)	(5.737961e-02 5.737958e-02 -6.687567e-04)	(-6.432982e-07 -6.433729e-07 4.118825e-04)
0.001675      	(5.833742e-02 5.833739e-02 -2.532710e-04)	(5.833806e-02 5.833803e-02 -6.716820e-04)	(-6.399271e-07 -6.399852e-07 4.184111e-04)
0.0017        	(5.929703e-02 5.929701e-02 -2.495098e-04)	(5.929766e-02 5.929765e-02 -6.744399e-04)	(-6.377700e-07 -6.378208e-07 4.249301e-04)
0.001725      	(6.025696e-02 6.025696e-02 -2.456462e-04)	(6.025759e-02 6.025760e-02 -6.770853e-04)	(-6.366793e-07 -6.367298e-07 4.314391e-04)
0.00175       	(6.121634e-02 6.121636e-02 -2.417076e-04)	(6.121698e-02 6.121700e-02 -6.796454e-04)	(-6.365664e-07 -6.366237e-07 4.379378e-04)
0.001775      	(6.217323e-02 6.217325e-02 -2.376340e-04)	(6.217387e-02 6.217389e-02 -6.820597e-04)	(-6.373942e-07 -6.374586e-07 4.444257e-04)
0.0018        	(6.312756e-02 6.312757e-02 -2.334647e-04)	(6.312820e-02 6.312821e-02 -6.843669e-04)	(-6.390214e-07 -6.390945e-07 4.509022e-04)
0.001825      	(6.407859e-02 6.407859e-02 -2.291338e-04)	(6.407923e-02 6.407923e-02 -6.865009e-04)	(-6.413450e-07 -6.414216e-07 4.573671e-04)
0.00185       	(6.502644e-02 6.502643e-02 -2.246195e-04)	(6.502709e-02 6.502708e-02 -6.884396e-04)	(-6.444263e-07 -6.444959e-07 4.638201e-04)
0.001875      	(6.597099e-02 6.597097e-02 -2.198648e-04)	(6.597164e-02 6.597161e-02 -6.901258e-04)	(-6.482732e-07 -6.483309e-07 4.702611e-04)
0.0019        	(6.691401e-02 6.691399e-02 -2.149410e-04)	(6.691466e-02 6.691464e-02 -6.916306e-04)	(-6.529159e-07 -6.529580e-07 4.766896e-04)
0.001925      	(6.785689e-02 6.785687e-02 -2.098807e-04)	(6.785755e-02 6.785752e-02 -6.929862e-04)	(-6.583581e-07 -6.583759e-07 4.831055e-04)
0.00195       	(6.879980e-02 6.879977e-02 -2.046211e-04)	(6.880046e-02 6.880044e-02 -6.941297e-04)	(-6.646705e-07 -6.646709e-07 4.895086e-04)
0.001975      	(6.974476e-02 6.974475e-02 -1.992442e-04)	(6.974543e-02 6.974542e-02 -6.951429e-04)	(-6.717112e-07 -6.717024e-07 4.958987e-04)
0.002         	(7.069623e-02 7.069624e-02 -1.939607e-04)	(7.069691e-02 7.069692e-02 -6.962362e-04)	(-6.792338e-07 -6.792230e-07 5.022755e-04)
0.002025      	(7.164960e-02 7.164962e-02 -1.884695e-04)	(7.165029e-02 7.165031e-02 -6.971087e-04)	(-6.874513e-07 -6.874467e-07 5.086391e-04)
0.00205       	(7.260457e-02 7.260460e-02 -1.827811e-04)	(7.260527e-02 7.260529e-02 -6.977704e-04)	(-6.961665e-07 -6.961777e-07 5.149893e-04)
0.002075      	(7.356209e-02 7.356212e-02 -1.769748e-04)	(7.356280e-02 7.356282e-02 -6.983006e-04)	(-7.053673e-07 -7.053951e-07 5.213258e-04)
0.0021        	(7.452076e-02 7.452078e-02 -1.709972e-04)	(7.452147e-02 7.452149e-02 -6.986456e-04)	(-7.151558e-07 -7.151978e-07 5.276484e-04)
0.002125      	(7.547637e-02 7.547637e-02 -1.646754e-04)	(7.547709e-02 7.547709e-02 -6.986331e-04)	(-7.254634e-07 -7.255056e-07 5.339576e-04)
0.00215       	(7.643883e-02 7.643881e-02 -1.585239e-04)	(7.643957e-02 7.643954e-02 -6.987771e-04)	(-7.362487e-07 -7.362842e-07 5.402532e-04)
0.002175      	(7.740107e-02 7.740103e-02 -1.522572e-04)	(7.740182e-02 7.740178e-02 -6.987918e-04)	(-7.474124e-07 -7.474320e-07 5.465346e-04)
0.0022        	(7.836352e-02 7.836348e-02 -1.459238e-04)	(7.836427e-02 7.836424e-02 -6.987252e-04)	(-7.588612e-07 -7.588576e-07 5.528014e-04)
0.002225      	(7.932357e-02 7.932354e-02 -1.394967e-04)	(7.932434e-02 7.932431e-02 -6.985503e-04)	(-7.704030e-07 -7.703819e-07 5.590536e-04)
0.00225       	(8.028386e-02 8.028386e-02 -1.330005e-04)	(8.028464e-02 8.028464e-02 -6.982919e-04)	(-7.822124e-07 -7.821888e-07 5.652914e-04)
0.002275      	(8.124930e-02 8.124932e-02 -1.267151e-04)	(8.125009e-02 8.125012e-02 -6.982294e-04)	(-7.941358e-07 -7.941214e-07 5.715143e-04)
0.0023        	(8.221138e-02 8.221141e-02 -1.203404e-04)	(8.221219e-02 8.221222e-02 -6.980622e-04)	(-8.060423e-07 -8.060454e-07 5.777218e-04)
0.002325      	(8.316735e-02 8.316738e-02 -1.137750e-04)	(8.316817e-02 8.316820e-02 -6.976887e-04)	(-8.178376e-07 -8.178601e-07 5.839137e-04)
0.00235       	(8.411464e-02 8.411465e-02 -1.069756e-04)	(8.411547e-02 8.411548e-02 -6.970657e-04)	(-8.296595e-07 -8.296986e-07 5.900901e-04)
0.002375      	(8.506784e-02 8.506783e-02 -1.003213e-04)	(8.506868e-02 8.506868e-02 -6.965715e-04)	(-8.416993e-07 -8.417446e-07 5.962502e-04)
0.0024        	(8.602469e-02 8.602467e-02 -9.378926e-05)	(8.602554e-02 8.602552e-02 -6.961828e-04)	(-8.536556e-07 -8.536986e-07 6.023935e-04)
0.002425      	(8.697927e-02 8.697924e-02 -8.722764e-05)	(8.698013e-02 8.698010e-02 -6.957468e-04)	(-8.653841e-07 -8.654168e-07 6.085192e-04)
0.00245       	(8.792596e-02 8.792593e-02 -8.049627e-05)	(8.792684e-02 8.792681e-02 -6.951232e-04)	(-8.767951e-07 -8.768168e-07 6.146269e-04)
0.002475      	(8.887106e-02 8.887105e-02 -7.374722e-05)	(8.887195e-02 8.887193e-02 -6.944633e-04)	(-8.881373e-07 -8.881507e-07 6.207161e-04)
0.0025        	(8.981976e-02 8.981977e-02 -6.699135e-05)	(8.982066e-02 8.982067e-02 -6.937771e-04)	(-8.997612e-07 -8.997700e-07 6.267857e-04)
0.002525      	(9.077399e-02 9.077401e-02 -6.030166e-05)	(9.077491e-02 9.077492e-02 -6.931365e-04)	(-9.113156e-07 -9.113351e-07 6.328348e-04)
0.00255       	(9.172655e-02 9.172657e-02 -5.358080e-05)	(9.172747e-02 9.172750e-02 -6.924431e-04)	(-9.225650e-07 -9.226002e-07 6.388622e-04)
0.002575      	(9.267131e-02 9.267133e-02 -4.673466e-05)	(9.267224e-02 9.267226e-02 -6.916013e-04)	(-9.335050e-07 -9.335575e-07 6.448667e-04)
0.0026        	(9.361524e-02 9.361525e-02 -3.990003e-05)	(9.361618e-02 9.361620e-02 -6.907468e-04)	(-9.440938e-07 -9.441624e-07 6.508467e-04)
0.002625      	(9.455824e-02 9.455825e-02 -3.304029e-05)	(9.455919e-02 9.455920e-02 -6.898410e-04)	(-9.550114e-07 -9.550924e-07 6.568007e-04)
0.00265       	(9.551098e-02 9.551097e-02 -2.629095e-05)	(9.551194e-02 9.551194e-02 -6.890177e-04)	(-9.660017e-07 -9.660841e-07 6.627267e-04)
0.002675      	(9.646412e-02 9.646411e-02 -1.957488e-05)	(9.646510e-02 9.646509e-02 -6.881975e-04)	(-9.766858e-07 -9.767666e-07 6.686227e-04)
0.0027        	(9.740926e-02 9.740924e-02 -1.280322e-05)	(9.741024e-02 9.741023e-02 -6.872895e-04)	(-9.868253e-07 -9.868991e-07 6.744863e-04)
0.002725      	(9.835270e-02 9.835268e-02 -6.040432e-06)	(9.835369e-02 9.835368e-02 -6.863553e-04)	(-9.967232e-07 -9.967892e-07 6.803149e-04)
0.00275       	(9.928784e-02 9.928784e-02 7.447631e-07)	(9.928885e-02 9.928884e-02 -6.853610e-04)	(-1.006286e-06 -1.006347e-06 6.861057e-04)
0.002775      	(1.002284e-01 1.002284e-01 7.456733e-06)	(1.002294e-01 1.002294e-01 -6.843990e-04)	(-1.016251e-06 -1.016307e-06 6.918557e-04)
0.0028        	(1.011762e-01 1.011762e-01 1.405004e-05)	(1.011773e-01 1.011773e-01 -6.835116e-04)	(-1.026026e-06 -1.026086e-06 6.975616e-04)
0.002825      	(1.021206e-01 1.021206e-01 2.058762e-05)	(1.021216e-01 1.021216e-01 -6.826323e-04)	(-1.035153e-06 -1.035220e-06 7.032200e-04)
0.00285       	(1.030552e-01 1.030552e-01 2.713002e-05)	(1.030562e-01 1.030562e-01 -6.816970e-04)	(-1.043920e-06 -1.043996e-06 7.088270e-04)
0.002875      	(1.039889e-01 1.039889e-01 3.360854e-05)	(1.039900e-01 1.039900e-01 -6.807702e-04)	(-1.051986e-06 -1.052067e-06 7.143788e-04)
0.0029        	(1.049130e-01 1.049130e-01 4.007656e-05)	(1.049141e-01 1.049141e-01 -6.797947e-04)	(-1.059884e-06 -1.059965e-06 7.198712e-04)
0.002925      	(1.058442e-01 1.058442e-01 4.644673e-05)	(1.058452e-01 1.058452e-01 -6.788534e-04)	(-1.068061e-06 -1.068145e-06 7.253001e-04)
0.00295       	(1.067813e-01 1.067813e-01 5.269681e-05)	(1.067823e-01 1.067823e-01 -6.779644e-04)	(-1.075923e-06 -1.076003e-06 7.306612e-04)
0.002975      	(1.077129e-01 1.077129e-01 5.887326e-05)	(1.077139e-01 1.077139e-01 -6.770770e-04)	(-1.082981e-06 -1.083058e-06 7.359502e-04)
0.003         	(1.086370e-01 1.086370e-01 6.499679e-05)	(1.086381e-01 1.086381e-01 -6.761661e-04)	(-1.089726e-06 -1.089808e-06 7.411629e-04)
0.003025      	(1.088014e-01 1.088014e-01 1.173295e-04)	(1.088024e-01 1.088024e-01 -6.274828e-04)	(-1.018482e-06 -1.018563e-06 7.448123e-04)
0.00305       	(1.082481e-01 1.082481e-01 2.106057e-04)	(1.082491e-01 1.082491e-01 -5.363675e-04)	(-9.617188e-07 -9.617911e-07 7.469732e-04)
0.003075      	(1.070606e-01 1.070606e-01 3.365258e-04)	(1.070615e-01 1.070615e-01 -4.110857e-04)	(-9.146767e-07 -9.147412e-07 7.476114e-04)
0.0031        	(1.053288e-01 1.053288e-01 4.847279e-04)	(1.053297e-01 1.053297e-01 -2.619468e-04)	(-8.767317e-07 -8.767852e-07 7.466747e-04)
0.003125      	(1.039058e-01 1.039058e-01 6.018666e-04)	(1.039067e-01 1.039067e-01 -1.437521e-04)	(-9.253688e-07 -9.254084e-07 7.456187e-04)
0.00315       	(1.028502e-01 1.028501e-01 6.847139e-04)	(1.028511e-01 1.028511e-01 -5.965755e-05)	(-9.657777e-07 -9.658056e-07 7.443715e-04)
0.003175      	(1.022012e-01 1.022012e-01 7.338174e-04)	(1.022022e-01 1.022022e-01 -9.171562e-06)	(-9.979882e-07 -9.980107e-07 7.429889e-04)
0.0032        	(1.019493e-01 1.019493e-01 7.542187e-04)	(1.019503e-01 1.019503e-01 1.266851e-05)	(-1.017782e-06 -1.017809e-06 7.415502e-04)
0.003225      	(1.020730e-01 1.020730e-01 7.535457e-04)	(1.020740e-01 1.020740e-01 1.344638e-05)	(-1.024107e-06 -1.024140e-06 7.400993e-04)
0.00325       	(1.024927e-01 1.024927e-01 7.398580e-04)	(1.024937e-01 1.024937e-01 1.228741e-06)	(-1.019103e-06 -1.019152e-06 7.386293e-04)
0.003275      	(1.031247e-01 1.031248e-01 7.200357e-04)	(1.031257e-01 1.031258e-01 -1.705802e-05)	(-1.007837e-06 -1.007897e-06 7.370937e-04)
0.0033        	(1.038926e-01 1.038926e-01 6.991315e-04)	(1.038936e-01 1.038936e-01 -3.629967e-05)	(-9.952029e-07 -9.952723e-07 7.354312e-04)
0.003325      	(1.047516e-01 1.047516e-01 6.805274e-04)	(1.047526e-01 1.047526e-01 -5.306309e-05)	(-9.856596e-07 -9.857178e-07 7.335905e-04)
0.00335       	(1.056405e-01 1.056405e-01 6.662781e-04)	(1.056415e-01 1.056414e-01 -6.526749e-05)	(-9.808065e-07 -9.808442e-07 7.315456e-04)
0.003375      	(1.064875e-01 1.064875e-01 6.575091e-04)	(1.064885e-01 1.064885e-01 -7.178911e-05)	(-9.812647e-07 -9.812723e-07 7.292982e-04)
0.0034        	(1.072560e-01 1.072559e-01 6.544584e-04)	(1.072569e-01 1.072569e-01 -7.241255e-05)	(-9.870280e-07 -9.870062e-07 7.268709e-04)
0.003425      	(1.079144e-01 1.079144e-01 6.568276e-04)	(1.079154e-01 1.079154e-01 -6.746743e-05)	(-9.978564e-07 -9.978155e-07 7.242950e-04)
0.00345       	(1.084665e-01 1.084665e-01 6.637775e-04)	(1.084675e-01 1.084675e-01 -5.782182e-05)	(-1.012398e-06 -1.012352e-06 7.215993e-04)
0.003475      	(1.088953e-01 1.088953e-01 6.741483e-04)	(1.088963e-01 1.088963e-01 -4.465464e-05)	(-1.029428e-06 -1.029394e-06 7.188029e-04)
0.0035        	(1.091972e-01 1.091972e-01 6.866380e-04)	(1.091983e-01 1.091983e-01 -2.927346e-05)	(-1.047366e-06 -1.047350e-06 7.159114e-04)
0.003525      	(1.094014e-01 1.094015e-01 6.997257e-04)	(1.094025e-01 1.094025e-01 -1.319540e-05)	(-1.065951e-06 -1.065954e-06 7.129211e-04)
0.00355       	(1.095259e-01 1.095259e-01 7.121063e-04)	(1.095270e-01 1.095270e-01 2.286183e-06)	(-1.083619e-06 -1.083634e-06 7.098202e-04)
0.003575      	(1.095804e-01 1.095803e-01 7.227388e-04)	(1.095815e-01 1.095814e-01 1.614422e-05)	(-1.098941e-06 -1.098947e-06 7.065946e-04)
0.0036        	(1.096029e-01 1.096028e-01 7.307770e-04)	(1.096040e-01 1.096039e-01 2.754285e-05)	(-1.111417e-06 -1.111406e-06 7.032341e-04)
0.003625      	(1.096062e-01 1.096061e-01 7.357936e-04)	(1.096073e-01 1.096073e-01 3.606182e-05)	(-1.119760e-06 -1.119727e-06 6.997318e-04)
0.00365       	(1.095971e-01 1.095971e-01 7.375256e-04)	(1.095983e-01 1.095982e-01 4.143356e-05)	(-1.124394e-06 -1.124339e-06 6.960921e-04)
0.003675      	(1.095934e-01 1.095934e-01 7.363070e-04)	(1.095945e-01 1.095945e-01 4.398772e-05)	(-1.124447e-06 -1.124380e-06 6.923193e-04)
0.0037        	(1.096123e-01 1.096123e-01 7.325060e-04)	(1.096134e-01 1.096135e-01 4.408598e-05)	(-1.119767e-06 -1.119703e-06 6.884200e-04)
0.003725      	(1.096463e-01 1.096464e-01 7.266908e-04)	(1.096475e-01 1.096475e-01 4.228723e-05)	(-1.110674e-06 -1.110623e-06 6.844036e-04)
0.00375       	(1.097144e-01 1.097144e-01 7.194661e-04)	(1.097155e-01 1.097155e-01 3.918609e-05)	(-1.098609e-06 -1.098587e-06 6.802800e-04)
0.003775      	(1.098188e-01 1.098188e-01 7.115738e-04)	(1.098199e-01 1.098199e-01 3.551505e-05)	(-1.083813e-06 -1.083821e-06 6.760587e-04)
0.0038        	(1.099477e-01 1.099477e-01 7.035188e-04)	(1.099487e-01 1.099488e-01 3.177114e-05)	(-1.066699e-06 -1.066728e-06 6.717477e-04)
0.003825      	(1.101033e-01 1.101034e-01 6.957094e-04)	(1.101044e-01 1.101044e-01 2.835654e-05)	(-1.048253e-06 -1.048297e-06 6.673528e-04)
0.00385       	(1.102801e-01 1.102801e-01 6.884630e-04)	(1.102812e-01 1.102812e-01 2.558399e-05)	(-1.028657e-06 -1.028711e-06 6.628790e-04)
0.003875      	(1.104595e-01 1.104595e-01 6.820301e-04)	(1.104605e-01 1.104605e-01 2.369971e-05)	(-1.008771e-06 -1.008815e-06 6.583304e-04)
0.0039        	(1.106558e-01 1.106558e-01 6.765364e-04)	(1.106568e-01 1.106567e-01 2.282607e-05)	(-9.883387e-07 -9.883734e-07 6.537103e-04)
0.003925      	(1.108495e-01 1.108494e-01 6.719336e-04)	(1.108504e-01 1.108504e-01 2.291189e-05)	(-9.670580e-07 -9.670800e-07 6.490217e-04)
0.00395       	(1.110171e-01 1.110170e-01 6.681680e-04)	(1.110180e-01 1.110180e-01 2.389999e-05)	(-9.449766e-07 -9.449980e-07 6.442680e-04)
0.003975      	(1.111728e-01 1.111728e-01 6.649314e-04)	(1.111737e-01 1.111737e-01 2.547912e-05)	(-9.222329e-07 -9.222438e-07 6.394522e-04)
0.004         	(1.113011e-01 1.113011e-01 6.620206e-04)	(1.113020e-01 1.113020e-01 2.744282e-05)	(-8.984319e-07 -8.984289e-07 6.345778e-04)
0.004025      	(1.113888e-01 1.113888e-01 6.592329e-04)	(1.113897e-01 1.113896e-01 2.958445e-05)	(-8.740567e-07 -8.740490e-07 6.296484e-04)
0.00405       	(1.114528e-01 1.114528e-01 6.563427e-04)	(1.114537e-01 1.114537e-01 3.167485e-05)	(-8.488934e-07 -8.488855e-07 6.246679e-04)
0.004075      	(1.114860e-01 1.114860e-01 6.531452e-04)	(1.114868e-01 1.114869e-01 3.350541e-05)	(-8.228560e-07 -8.228644e-07 6.196398e-04)
0.0041        	(1.114777e-01 1.114778e-01 6.495408e-04)	(1.114785e-01 1.114786e-01 3.497265e-05)	(-7.960477e-07 -7.960684e-07 6.145681e-04)
0.004125      	(1.114530e-01 1.114531e-01 6.453172e-04)	(1.114538e-01 1.114539e-01 3.586090e-05)	(-7.689431e-07 -7.690015e-07 6.094563e-04)
0.00415       	(1.114112e-01 1.114113e-01 6.404490e-04)	(1.114119e-01 1.114120e-01 3.614159e-05)	(-7.415499e-07 -7.416438e-07 6.043074e-04)
0.004175      	(1.113403e-01 1.113403e-01 6.350094e-04)	(1.113410e-01 1.113410e-01 3.588479e-05)	(-7.141033e-07 -7.142129e-07 5.991246e-04)
0.0042        	(1.112705e-01 1.112705e-01 6.290007e-04)	(1.112712e-01 1.112712e-01 3.509045e-05)	(-6.867659e-07 -6.868892e-07 5.939103e-04)
0.004225      	(1.112003e-01 1.112003e-01 6.225979e-04)	(1.112010e-01 1.112010e-01 3.393122e-05)	(-6.597770e-07 -6.598852e-07 5.886667e-04)
0.00425       	(1.111211e-01 1.111210e-01 6.159456e-04)	(1.111217e-01 1.111216e-01 3.254899e-05)	(-6.330370e-07 -6.331055e-07 5.833966e-04)
0.004275      	(1.110565e-01 1.110564e-01 6.090457e-04)	(1.110571e-01 1.110570e-01 3.094389e-05)	(-6.072584e-07 -6.072866e-07 5.781018e-04)
0.0043        	(1.110042e-01 1.110041e-01 6.020244e-04)	(1.110048e-01 1.110047e-01 2.924060e-05)	(-5.822775e-07 -5.822849e-07 5.727838e-04)
0.004325      	(1.109467e-01 1.109467e-01 5.950375e-04)	(1.109472e-01 1.109472e-01 2.759332e-05)	(-5.581408e-07 -5.581383e-07 5.674442e-04)
0.00435       	(1.109104e-01 1.109104e-01 5.881444e-04)	(1.109109e-01 1.109110e-01 2.605989e-05)	(-5.348455e-07 -5.348573e-07 5.620845e-04)
0.004375      	(1.108878e-01 1.108879e-01 5.813649e-04)	(1.108883e-01 1.108884e-01 2.465875e-05)	(-5.123804e-07 -5.124197e-07 5.567061e-04)
0.0044        	(1.108585e-01 1.108585e-01 5.749486e-04)	(1.108590e-01 1.108590e-01 2.363769e-05)	(-4.903929e-07 -4.904560e-07 5.513109e-04)
0.004425      	(1.108428e-01 1.108428e-01 5.687375e-04)	(1.108433e-01 1.108433e-01 2.283710e-05)	(-4.692750e-07 -4.693462e-07 5.459004e-04)
0.00445       	(1.108309e-01 1.108309e-01 5.627440e-04)	(1.108314e-01 1.108313e-01 2.226797e-05)	(-4.488462e-07 -4.489140e-07 5.404760e-04)
0.004475      	(1.108013e-01 1.108012e-01 5.570317e-04)	(1.108017e-01 1.108017e-01 2.199210e-05)	(-4.290437e-07 -4.290902e-07 5.350396e-04)
0.0045        	(1.107766e-01 1.107765e-01 5.515103e-04)	(1.107770e-01 1.107769e-01 2.191739e-05)	(-4.098062e-07 -4.098219e-07 5.295929e-04)
0.004525      	(1.107503e-01 1.107503e-01 5.460982e-04)	(1.107507e-01 1.107507e-01 2.196093e-05)	(-3.910331e-07 -3.910201e-07 5.241373e-04)
0.00455       	(1.107015e-01 1.107015e-01 5.408308e-04)	(1.107019e-01 1.107018e-01 2.215620e-05)	(-3.723346e-07 -3.723041e-07 5.186746e-04)
0.004575      	(1.106525e-01 1.106525e-01 5.356067e-04)	(1.106529e-01 1.106529e-01 2.240034e-05)	(-3.540372e-07 -3.540022e-07 5.132063e-04)
0.0046        	(1.105966e-01 1.105967e-01 5.303779e-04)	(1.105970e-01 1.105970e-01 2.264396e-05)	(-3.360448e-07 -3.360288e-07 5.077339e-04)
0.004625      	(1.105152e-01 1.105153e-01 5.251668e-04)	(1.105155e-01 1.105156e-01 2.290792e-05)	(-3.181841e-07 -3.181927e-07 5.022589e-04)
0.00465       	(1.104331e-01 1.104332e-01 5.199035e-04)	(1.104335e-01 1.104335e-01 2.312066e-05)	(-3.005475e-07 -3.005806e-07 4.967829e-04)
0.004675      	(1.103492e-01 1.103493e-01 5.145461e-04)	(1.103495e-01 1.103495e-01 2.323890e-05)	(-2.832435e-07 -2.832909e-07 4.913072e-04)
0.0047        	(1.102472e-01 1.102472e-01 5.091264e-04)	(1.102475e-01 1.102475e-01 2.329307e-05)	(-2.657819e-07 -2.658217e-07 4.858333e-04)
0.004725      	(1.101497e-01 1.101496e-01 5.036298e-04)	(1.101499e-01 1.101499e-01 2.326723e-05)	(-2.487267e-07 -2.487441e-07 4.803625e-04)
0.00475       	(1.100533e-01 1.100532e-01 4.980699e-04)	(1.100535e-01 1.100534e-01 2.317391e-05)	(-2.320903e-07 -2.320748e-07 4.748960e-04)
0.004775      	(1.099421e-01 1.099421e-01 4.924915e-04)	(1.099423e-01 1.099423e-01 2.305661e-05)	(-2.158165e-07 -2.157676e-07 4.694349e-04)
0.0048        	(1.098389e-01 1.098389e-01 4.869105e-04)	(1.098391e-01 1.098391e-01 2.292989e-05)	(-2.000360e-07 -1.999598e-07 4.639806e-04)
0.004825      	(1.097441e-01 1.097441e-01 4.813335e-04)	(1.097443e-01 1.097443e-01 2.279941e-05)	(-1.849686e-07 -1.848911e-07 4.585341e-04)
0.00485       	(1.096425e-01 1.096425e-01 4.758223e-04)	(1.096426e-01 1.096427e-01 2.272586e-05)	(-1.701104e-07 -1.700400e-07 4.530964e-04)
0.004875      	(1.095511e-01 1.095512e-01 4.703418e-04)	(1.095513e-01 1.095513e-01 2.267337e-05)	(-1.560147e-07 -1.559618e-07 4.476684e-04)
0.0049        	(1.094666e-01 1.094666e-01 4.649283e-04)	(1.094667e-01 1.094667e-01 2.267755e-05)	(-1.426761e-07 -1.426333e-07 4.422508e-04)
0.004925      	(1.093723e-01 1.093723e-01 4.595933e-04)	(1.093724e-01 1.093724e-01 2.274888e-05)	(-1.299362e-07 -1.298959e-07 4.368445e-04)
0.00495       	(1.092858e-01 1.092858e-01 4.543654e-04)	(1.092860e-01 1.092859e-01 2.291500e-05)	(-1.181079e-07 -1.180664e-07 4.314504e-04)
0.004975      	(1.092086e-01 1.092086e-01 4.492156e-04)	(1.092087e-01 1.092087e-01 2.314629e-05)	(-1.072300e-07 -1.071753e-07 4.260693e-04)
0.005         	(1.091244e-01 1.091244e-01 4.441526e-04)	(1.091245e-01 1.091245e-01 2.345044e-05)	(-9.678549e-08 -9.672301e-08 4.207021e-04)
0.005025      	(1.090451e-01 1.090451e-01 4.391304e-04)	(1.090452e-01 1.090452e-01 2.378099e-05)	(-8.744806e-08 -8.738462e-08 4.153494e-04)
0.00505       	(1.089691e-01 1.089692e-01 4.341657e-04)	(1.089692e-01 1.089692e-01 2.415384e-05)	(-7.912164e-08 -7.906726e-08 4.100119e-04)
0.005075      	(1.088813e-01 1.088813e-01 4.292247e-04)	(1.088813e-01 1.088814e-01 2.453448e-05)	(-7.133190e-08 -7.129259e-08 4.046902e-04)
0.0051        	(1.087922e-01 1.087922e-01 4.243161e-04)	(1.087922e-01 1.087922e-01 2.493091e-05)	(-6.458211e-08 -6.455799e-08 3.993852e-04)
0.005125      	(1.087069e-01 1.087069e-01 4.193907e-04)	(1.087069e-01 1.087069e-01 2.529305e-05)	(-5.883612e-08 -5.882860e-08 3.940976e-04)
0.00515       	(1.086171e-01 1.086171e-01 4.144444e-04)	(1.086171e-01 1.086171e-01 2.561578e-05)	(-5.376143e-08 -5.375909e-08 3.888286e-04)
0.005175      	(1.085254e-01 1.085254e-01 4.094506e-04)	(1.085255e-01 1.085255e-01 2.587178e-05)	(-4.980090e-08 -4.979723e-08 3.835788e-04)
0.0052        	(1.084334e-01 1.084333e-01 4.043961e-04)	(1.084334e-01 1.084334e-01 2.604712e-05)	(-4.701420e-08 -4.699536e-08 3.783490e-04)
0.005225      	(1.083326e-01 1.083326e-01 3.992738e-04)	(1.083326e-01 1.083326e-01 2.613406e-05)	(-4.518946e-08 -4.515463e-08 3.731398e-04)
0.00525       	(1.082271e-01 1.082270e-01 3.941202e-04)	(1.082271e-01 1.082271e-01 2.616812e-05)	(-4.506518e-08 -4.502011e-08 3.679521e-04)
0.005275      	(1.081328e-01 1.081328e-01 3.889141e-04)	(1.081328e-01 1.081328e-01 2.612686e-05)	(-4.623562e-08 -4.619016e-08 3.627872e-04)