# Moment      
# CofR        : (5.000000e-01 1.000000e-01 0.000000e+00)
#
# Time        	(total_x total_y total_z)	(pressure_x pressure_y pressure_z)	(viscous_x viscous_y viscous_z)
2.5e-05       	(-2.158493e-06 3.647321e-06 -1.230237e-03)	(-1.593098e-06 7.435710e-07 -1.230431e-03)	(-5.653950e-07 2.903750e-06 1.940260e-07)
5e-05         	(-5.438120e-06 7.349023e-06 -2.369777e-03)	(-4.341259e-06 1.716026e-06 -2.370018e-03)	(-1.096861e-06 5.632997e-06 2.412263e-07)
7.5e-05       	(-9.767328e-06 1.193216e-05 -3.401812e-03)	(-8.130372e-06 3.525484e-06 -3.402107e-03)	(-1.636956e-06 8.406673e-06 2.940537e-07)
0.0001        	(-1.478586e-05 1.711696e-05 -4.281192e-03)	(-1.259297e-05 5.855232e-06 -4.281534e-03)	(-2.192891e-06 1.126173e-05 3.418342e-07)
0.000125      	(-2.001530e-05 2.226350e-05 -4.976425e-03)	(-1.725889e-05 8.107722e-06 -4.976811e-03)	(-2.756411e-06 1.415577e-05 3.857902e-07)
0.00015       	(-2.500027e-05 2.672427e-05 -5.485579e-03)	(-2.168453e-05 9.695897e-06 -5.486007e-03)	(-3.315741e-06 1.702838e-05 4.281614e-07)
0.000175      	(-2.937076e-05 2.996156e-05 -5.829760e-03)	(-2.550790e-05 1.012317e-05 -5.830230e-03)	(-3.862868e-06 1.983839e-05 4.696699e-07)
0.0002        	(-3.286819e-05 3.162748e-05 -6.040768e-03)	(-2.847163e-05 9.048007e-06 -6.041278e-03)	(-4.396557e-06 2.257947e-05 5.099024e-07)
0.000225      	(-3.535221e-05 3.159704e-05 -6.152284e-03)	(-3.043059e-05 6.320704e-06 -6.152832e-03)	(-4.921621e-06 2.527633e-05 5.480528e-07)
0.00025       	(-3.678835e-05 2.993606e-05 -6.195732e-03)	(-3.134248e-05 1.967003e-06 -6.196315e-03)	(-5.445871e-06 2.796905e-05 5.833093e-07)
0.000275      	(-3.723727e-05 2.684531e-05 -6.199821e-03)	(-3.126057e-05 -3.850257e-06 -6.200436e-03)	(-5.976696e-06 3.069556e-05 6.150283e-07)
0.0003        	(-3.683078e-05 2.259148e-05 -6.190247e-03)	(-3.031210e-05 -1.088791e-05 -6.190890e-03)	(-6.518680e-06 3.347939e-05 6.427745e-07)
0.000325      	(-3.576594e-05 1.747667e-05 -6.190055e-03)	(-2.869315e-05 -1.884882e-05 -6.190722e-03)	(-7.072786e-06 3.632548e-05 6.662901e-07)
0.00035       	(-3.428358e-05 1.181504e-05 -6.218527e-03)	(-2.664661e-05 -2.740830e-05 -6.219212e-03)	(-7.636969e-06 3.922334e-05 6.855058e-07)
0.000375      	(-3.264019e-05 5.916052e-06 -6.289597e-03)	(-2.443262e-05 -3.623819e-05 -6.290297e-03)	(-8.207578e-06 4.215424e-05 7.004876e-07)
0.0004        	(-3.109762e-05 8.905327e-08 -6.411782e-03)	(-2.231672e-05 -4.501007e-05 -6.412493e-03)	(-8.780902e-06 4.509912e-05 7.114419e-07)
0.000425      	(-2.989286e-05 -5.376373e-06 -6.587597e-03)	(-2.053864e-05 -5.342040e-05 -6.588315e-03)	(-9.354219e-06 4.804403e-05 7.186705e-07)
0.00045       	(-2.922310e-05 -1.022405e-05 -6.814473e-03)	(-1.929671e-05 -6.120714e-05 -6.815195e-03)	(-9.926388e-06 5.098309e-05 7.225631e-07)
0.000475      	(-2.923118e-05 -1.425210e-05 -7.085937e-03)	(-1.873347e-05 -6.816996e-05 -7.086660e-03)	(-1.049771e-05 5.391786e-05 7.235524e-07)
0.0005        	(-2.999930e-05 -1.732906e-05 -7.393134e-03)	(-1.892979e-05 -7.418421e-05 -7.393856e-03)	(-1.106951e-05 5.685515e-05 7.220816e-07)
0.000525      	(-3.154805e-05 -1.940442e-05 -7.726241e-03)	(-1.990450e-05 -7.920839e-05 -7.726960e-03)	(-1.164355e-05 5.980397e-05 7.185609e-07)
0.00055       	(-3.384085e-05 -2.051069e-05 -8.075603e-03)	(-2.161938e-05 -8.328349e-05 -8.076317e-03)	(-1.222147e-05 6.277280e-05 7.133528e-07)
0.000575      	(-3.679250e-05 -2.075616e-05 -8.432505e-03)	(-2.398803e-05 -8.652395e-05 -8.433212e-03)	(-1.280448e-05 6.576779e-05 7.067321e-07)
0.0006        	(-4.028098e-05 -2.030866e-05 -8.789609e-03)	(-2.688780e-05 -8.910070e-05 -8.790308e-03)	(-1.339317e-05 6.879204e-05 6.989091e-07)
0.000625      	(-4.416092e-05 -1.937302e-05 -9.141122e-03)	(-3.017332e-05 -9.121879e-05 -9.141812e-03)	(-1.398760e-05 7.184577e-05 6.900142e-07)
0.00065       	(-4.827815e-05 -1.816499e-05 -9.482809e-03)	(-3.369076e-05 -9.309208e-05 -9.483489e-03)	(-1.458739e-05 7.492708e-05 6.801383e-07)
0.000675      	(-5.248373e-05 -1.688558e-05 -9.811916e-03)	(-3.729180e-05 -9.491843e-05 -9.812585e-03)	(-1.519193e-05 7.803285e-05 6.693319e-07)
0.0007        	(-5.664653e-05 -1.569930e-05 -1.012708e-02)	(-4.084598e-05 -9.685888e-05 -1.012774e-02)	(-1.580055e-05 8.115958e-05 6.576420e-07)
0.000725      	(-6.066355e-05 -1.471845e-05 -1.042823e-02)	(-4.425095e-05 -9.902246e-05 -1.042887e-02)	(-1.641261e-05 8.430401e-05 6.451199e-07)
0.00075       	(-6.446683e-05 -1.399526e-05 -1.071646e-02)	(-4.743925e-05 -1.014587e-04 -1.071709e-02)	(-1.702759e-05 8.746348e-05 6.318375e-07)
0.000775      	(-6.802713e-05 -1.352190e-05 -1.099392e-02)	(-5.038203e-05 -1.041579e-04 -1.099453e-02)	(-1.764509e-05 9.063599e-05 6.178931e-07)
0.0008        	(-7.135343e-05 -1.323752e-05 -1.126358e-02)	(-5.308856e-05 -1.070577e-04 -1.126418e-02)	(-1.826486e-05 9.382016e-05 6.034072e-07)
0.000825      	(-7.448710e-05 -1.304326e-05 -1.152897e-02)	(-5.560038e-05 -1.100583e-04 -1.152956e-02)	(-1.888672e-05 9.701507e-05 5.885197e-07)
0.00085       	(-7.749541e-05 -1.281710e-05 -1.179389e-02)	(-5.798487e-05 -1.130372e-04 -1.179446e-02)	(-1.951054e-05 1.002201e-04 5.733806e-07)
0.000875      	(-8.046813e-05 -1.242319e-05 -1.206227e-02)	(-6.033196e-05 -1.158577e-04 -1.206283e-02)	(-2.013617e-05 1.034345e-04 5.581290e-07)
0.0009        	(-8.347363e-05 -1.177303e-05 -1.233701e-02)	(-6.270997e-05 -1.184315e-04 -1.233755e-02)	(-2.076367e-05 1.066585e-04 5.429025e-07)
0.000925      	(-8.662746e-05 -1.074948e-05 -1.262198e-02)	(-6.523472e-05 -1.206401e-04 -1.262251e-02)	(-2.139273e-05 1.098906e-04 5.277515e-07)
0.00095       	(-9.000309e-05 -9.285283e-06 -1.291888e-02)	(-6.797976e-05 -1.224159e-04 -1.291940e-02)	(-2.202332e-05 1.131306e-04 5.127657e-07)
0.000975      	(-9.368022e-05 -7.300203e-06 -1.322871e-02)	(-7.102493e-05 -1.236780e-04 -1.322920e-02)	(-2.265528e-05 1.163778e-04 4.980678e-07)
0.001         	(-9.771506e-05 -4.749940e-06 -1.355148e-02)	(-7.442662e-05 -1.243810e-04 -1.355196e-02)	(-2.328844e-05 1.196310e-04 4.837365e-07)
0.001025      	(-1.021379e-04 -1.636440e-06 -1.388661e-02)	(-7.821532e-05 -1.245260e-04 -1.388708e-02)	(-2.392260e-05 1.228896e-04 4.698083e-07)
0.00105       	(-1.069534e-04 1.995861e-06 -1.423304e-02)	(-8.239580e-05 -1.241565e-04 -1.423349e-02)	(-2.455757e-05 1.261523e-04 4.562175e-07)
0.001075      	(-1.121518e-04 6.116748e-06 -1.458880e-02)	(-8.695864e-05 -1.233015e-04 -1.458924e-02)	(-2.519315e-05 1.294183e-04 4.429778e-07)
0.0011        	(-1.177073e-04 1.068778e-05 -1.495155e-02)	(-9.187809e-05 -1.219988e-04 -1.495198e-02)	(-2.582919e-05 1.326866e-04 4.301241e-07)
0.001125      	(-1.235802e-04 1.566050e-05 -1.531880e-02)	(-9.711464e-05 -1.202964e-04 -1.531922e-02)	(-2.646558e-05 1.359569e-04 4.176672e-07)
0.00115       	(-1.297184e-04 2.096609e-05 -1.568833e-02)	(-1.026162e-04 -1.182622e-04 -1.568874e-02)	(-2.710219e-05 1.392283e-04 4.055502e-07)
0.001175      	(-1.360654e-04 2.653539e-05 -1.605819e-02)	(-1.083265e-04 -1.159648e-04 -1.605858e-02)	(-2.773889e-05 1.425002e-04 3.936957e-07)
0.0012        	(-1.425744e-04 3.235132e-05 -1.642629e-02)	(-1.141987e-04 -1.134212e-04 -1.642668e-02)	(-2.837565e-05 1.457725e-04 3.821854e-07)
0.001225      	(-1.491981e-04 3.837496e-05 -1.679143e-02)	(-1.201856e-04 -1.106702e-04 -1.679180e-02)	(-2.901247e-05 1.490452e-04 3.710368e-07)
0.00125       	(-1.558962e-04 4.457029e-05 -1.715301e-02)	(-1.262469e-04 -1.077478e-04 -1.715337e-02)	(-2.964935e-05 1.523181e-04 3.602523e-07)
0.001275      	(-1.626405e-04 5.092065e-05 -1.751085e-02)	(-1.323542e-04 -1.046707e-04 -1.751120e-02)	(-3.028627e-05 1.555914e-04 3.498602e-07)
0.0013        	(-1.694134e-04 5.741339e-05 -1.786532e-02)	(-1.384902e-04 -1.014513e-04 -1.786566e-02)	(-3.092320e-05 1.588647e-04 3.398818e-07)
0.001325      	(-1.762122e-04 6.406019e-05 -1.821704e-02)	(-1.446520e-04 -9.807790e-05 -1.821737e-02)	(-3.156014e-05 1.621381e-04 3.303579e-07)
0.00135       	(-1.830440e-04 7.086773e-05 -1.856721e-02)	(-1.508469e-04 -9.454352e-05 -1.856753e-02)	(-3.219702e-05 1.654112e-04 3.213004e-07)
0.001375      	(-1.899250e-04 7.784374e-05 -1.891727e-02)	(-1.570912e-04 -9.084028e-05 -1.891759e-02)	(-3.283382e-05 1.686840e-04 3.127332e-07)
0.0014        	(-1.968773e-04 8.499487e-05 -1.926869e-02)	(-1.634068e-04 -8.696131e-05 -1.926899e-02)	(-3.347050e-05 1.719562e-04 3.046643e-07)
0.001425      	(-2.039339e-04 9.236712e-05 -1.962231e-02)	(-1.698269e-04 -8.286031e-05 -1.962261e-02)	(-3.410700e-05 1.752274e-04 2.971171e-07)
0.00145       	(-2.111344e-04 1.000391e-04 -1.997839e-02)	(-1.763912e-04 -7.845831e-05 -1.997868e-02)	(-3.474324e-05 1.784974e-04 2.901563e-07)
0.001475      	(-2.185115e-04 1.080499e-04 -2.033738e-02)	(-1.831323e-04 -7.371589e-05 -2.033766e-02)	(-3.537917e-05 1.817658e-04 2.838252e-07)
0.0015        	(-2.260865e-04 1.163816e-04 -2.070027e-02)	(-1.900717e-04 -6.865074e-05 -2.070055e-02)	(-3.601472e-05 1.850323e-04 2.781196e-07)
0.001525      	(-2.338815e-04 1.250583e-04 -2.106718e-02)	(-1.972317e-04 -6.323825e-05 -2.106746e-02)	(-3.664982e-05 1.882965e-04 2.730276e-07)
0.00155       	(-2.419193e-04 1.341217e-04 -2.143771e-02)	(-2.046349e-04 -5.743623e-05 -2.143797e-02)	(-3.728438e-05 1.915580e-04 2.685933e-07)
0.001575      	(-2.502029e-04 1.435413e-04 -2.181188e-02)	(-2.122846e-04 -5.127494e-05 -2.181214e-02)	(-3.791831e-05 1.948163e-04 2.648199e-07)
0.0016        	(-2.587337e-04 1.533101e-04 -2.218919e-02)	(-2.201821e-04 -4.476101e-05 -2.218945e-02)	(-3.855156e-05 1.980711e-04 2.617202e-07)
0.001625      	(-2.674991e-04 1.633802e-04 -2.256934e-02)	(-2.283151e-04 -3.794175e-05 -2.256960e-02)	(-3.918405e-05 2.013220e-04 2.592496e-07)
0.00165       	(-2.764876e-04 1.737381e-04 -2.295157e-02)	(-2.366719e-04 -3.083064e-05 -2.295183e-02)	(-3.981571e-05 2.045687e-04 2.573564e-07)
0.001675      	(-2.856844e-04 1.843761e-04 -2.333495e-02)	(-2.452379e-04 -2.343484e-05 -2.333521e-02)	(-4.044649e-05 2.078109e-04 2.559997e-07)
0.0017        	(-2.950675e-04 1.952636e-04 -2.371880e-02)	(-2.539912e-04 -1.578472e-05 -2.371906e-02)	(-4.107634e-05 2.110484e-04 2.551333e-07)
0.001725      	(-3.046129e-04 2.063543e-04 -2.410279e-02)	(-2.629077e-04 -7.926522e-06 -2.410304e-02)	(-4.170522e-05 2.142809e-04 2.546968e-07)
0.00175       	(-3.142981e-04 2.176149e-04 -2.448655e-02)	(-2.719650e-04 1.066653e-07 -2.448680e-02)	(-4.233309e-05 2.175082e-04 2.546550e-07)
0.001775      	(-3.241092e-04 2.290555e-04 -2.486930e-02)	(-2.811493e-04 8.325284e-06 -2.486956e-02)	(-4.295992e-05 2.207302e-04 2.549897e-07)
0.0018        	(-3.340288e-04 2.406428e-04 -2.525103e-02)	(-2.904431e-04 1.669627e-05 -2.525129e-02)	(-4.358564e-05 2.239465e-04 2.556449e-07)
0.001825      	(-3.440527e-04 2.523992e-04 -2.563144e-02)	(-2.998425e-04 2.524212e-05 -2.563169e-02)	(-4.421024e-05 2.271571e-04 2.565760e-07)
0.00185       	(-3.541784e-04 2.643307e-04 -2.601057e-02)	(-3.093447e-04 3.396895e-05 -2.601083e-02)	(-4.483369e-05 2.303617e-04 2.578050e-07)
0.001875      	(-3.644108e-04 2.764650e-04 -2.638838e-02)	(-3.189548e-04 4.290460e-05 -2.638864e-02)	(-4.545597e-05 2.335604e-04 2.593379e-07)
0.0019        	(-3.747495e-04 2.887733e-04 -2.676559e-02)	(-3.286725e-04 5.202040e-05 -2.676585e-02)	(-4.607705e-05 2.367529e-04 2.611873e-07)
0.001925      	(-3.852014e-04 3.012493e-04 -2.714274e-02)	(-3.385045e-04 6.131016e-05 -2.714301e-02)	(-4.669690e-05 2.399391e-04 2.633521e-07)
0.00195       	(-3.957830e-04 3.139347e-04 -2.751991e-02)	(-3.484675e-04 7.081571e-05 -2.752017e-02)	(-4.731552e-05 2.431190e-04 2.658684e-07)
0.001975      	(-4.065026e-04 3.268050e-04 -2.789790e-02)	(-3.585697e-04 8.051259e-05 -2.789817e-02)	(-4.793288e-05 2.462924e-04 2.686801e-07)
0.002         	(-4.173616e-04 3.397773e-04 -2.827850e-02)	(-3.688127e-04 9.031818e-05 -2.827877e-02)	(-4.854895e-05 2.494592e-04 2.716882e-07)
0.002025      	(-4.283903e-04 3.530024e-04 -2.865985e-02)	(-3.792266e-04 1.003830e-04 -2.866013e-02)	(-4.916375e-05 2.526194e-04 2.749782e-07)
0.00205       	(-4.395957e-04 3.664831e-04 -2.904184e-02)	(-3.898185e-04 1.107101e-04 -2.904212e-02)	(-4.977725e-05 2.557730e-04 2.784721e-07)
0.002075      	(-4.509789e-04 3.801887e-04 -2.942485e-02)	(-4.005894e-04 1.212690e-04 -2.942513e-02)	(-5.038943e-05 2.589197e-04 2.821607e-07)
0.0021        	(-4.625458e-04 3.941467e-04 -2.980831e-02)	(-4.115455e-04 1.320871e-04 -2.980860e-02)	(-5.100026e-05 2.620596e-04 2.860832e-07)
0.002125      	(-4.743033e-04 4.084331e-04 -3.019055e-02)	(-4.226935e-04 1.432402e-04 -3.019084e-02)	(-5.160980e-05 2.651929e-04 2.902063e-07)
0.00215       	(-4.862279e-04 4.228184e-04 -3.057552e-02)	(-4.340099e-04 1.544991e-04 -3.057582e-02)	(-5.221801e-05 2.683193e-04 2.945171e-07)
0.002175      	(-4.983237e-04 4.374211e-04 -3.096041e-02)	(-4.454988e-04 1.659823e-04 -3.096071e-02)	(-5.282486e-05 2.714387e-04 2.989747e-07)
0.0022        	(-5.105827e-04 4.522135e-04 -3.134539e-02)	(-4.571524e-04 1.776626e-04 -3.134569e-02)	(-5.343030e-05 2.745508e-04 3.035427e-07)
0.002225      	(-5.229918e-04 4.671934e-04 -3.172941e-02)	(-4.689575e-04 1.895376e-04 -3.172972e-02)	(-5.403432e-05 2.776558e-04 3.081507e-07)
0.00225       	(-5.355544e-04 4.823543e-04 -3.211354e-02)	(-4.809174e-04 2.016008e-04 -3.211386e-02)	(-5.463696e-05 2.807535e-04 3.128732e-07)
0.002275      	(-5.482507e-04 4.975646e-04 -3.249973e-02)	(-4.930125e-04 2.137207e-04 -3.250005e-02)	(-5.523816e-05 2.838439e-04 3.176471e-07)
0.0023        	(-5.610771e-04 5.129408e-04 -3.288457e-02)	(-5.052392e-04 2.260142e-04 -3.288489e-02)	(-5.583787e-05 2.869266e-04 3.224184e-07)
0.002325      	(-5.740312e-04 5.285209e-04 -3.326695e-02)	(-5.175951e-04 2.385194e-04 -3.326728e-02)	(-5.643607e-05 2.900015e-04 3.271462e-07)
0.00235       	(-5.871030e-04 5.443125e-04 -3.364586e-02)	(-5.300702e-04 2.512437e-04 -3.364620e-02)	(-5.703279e-05 2.930688e-04 3.318832e-07)
0.002375      	(-6.003106e-04 5.601820e-04 -3.402713e-02)	(-5.426826e-04 2.640540e-04 -3.402747e-02)	(-5.762793e-05 2.961280e-04 3.367022e-07)
0.0024        	(-6.136457e-04 5.761301e-04 -3.440987e-02)	(-5.554242e-04 2.769512e-04 -3.441021e-02)	(-5.822144e-05 2.991788e-04 3.414835e-07)
0.002425      	(-6.271006e-04 5.922098e-04 -3.479169e-02)	(-5.682874e-04 2.899888e-04 -3.479204e-02)	(-5.881326e-05 3.022209e-04 3.461699e-07)
0.00245       	(-6.406680e-04 6.084697e-04 -3.517037e-02)	(-5.812647e-04 3.032156e-04 -3.517072e-02)	(-5.940335e-05 3.052541e-04 3.507288e-07)
0.002475      	(-6.543591e-04 6.248604e-04 -3.554842e-02)	(-5.943675e-04 3.165823e-04 -3.554877e-02)	(-5.999165e-05 3.082781e-04 3.552615e-07)
0.0025        	(-6.682030e-04 6.414065e-04 -3.592791e-02)	(-6.076249e-04 3.301141e-04 -3.592827e-02)	(-6.057805e-05 3.112923e-04 3.599088e-07)
0.002525      	(-6.822006e-04 6.580799e-04 -3.630961e-02)	(-6.210381e-04 3.437835e-04 -3.630997e-02)	(-6.116248e-05 3.142964e-04 3.645359e-07)
0.00255       	(-6.963285e-04 6.748960e-04 -3.669063e-02)	(-6.345836e-04 3.576063e-04 -3.669100e-02)	(-6.174482e-05 3.172897e-04 3.690434e-07)
0.002575      	(-7.105674e-04 6.918734e-04 -3.706853e-02)	(-6.482425e-04 3.716018e-04 -3.706891e-02)	(-6.232494e-05 3.202716e-04 3.734280e-07)
0.0026        	(-7.249338e-04 7.089736e-04 -3.744610e-02)	(-6.620311e-04 3.857322e-04 -3.744648e-02)	(-6.290270e-05 3.232414e-04 3.776715e-07)
0.002625      	(-7.394335e-04 7.262173e-04 -3.782330e-02)	(-6.759556e-04 4.000190e-04 -3.782368e-02)	(-6.347795e-05 3.261982e-04 3.820447e-07)
0.00265       	(-7.541066e-04 7.435902e-04 -3.820439e-02)	(-6.900561e-04 4.144490e-04 -3.820478e-02)	(-6.405049e-05 3.291412e-04 3.864416e-07)
0.002675      	(-7.689101e-04 7.610802e-04 -3.858564e-02)	(-7.042900e-04 4.290110e-04 -3.858603e-02)	(-6.462013e-05 3.320692e-04 3.907144e-07)
0.0027        	(-7.838072e-04 7.786861e-04 -3.896369e-02)	(-7.186205e-04 4.437049e-04 -3.896409e-02)	(-6.518665e-05 3.349812e-04 3.947667e-07)
0.002725      	(-7.988223e-04 7.964063e-04 -3.934107e-02)	(-7.330726e-04 4.585306e-04 -3.934147e-02)	(-6.574979e-05 3.378757e-04 3.987220e-07)
0.00275       	(-8.139180e-04 8.142160e-04 -3.971513e-02)	(-7.476087e-04 4.734644e-04 -3.971554e-02)	(-6.630928e-05 3.407516e-04 4.025448e-07)
0.002775      	(-8.291613e-04 8.321440e-04 -4.009137e-02)	(-7.622965e-04 4.885369e-04 -4.009177e-02)	(-6.686482e-05 3.436071e-04 4.065284e-07)
0.0028        	(-8.445543e-04 8.501743e-04 -4.047050e-02)	(-7.771382e-04 5.037335e-04 -4.047091e-02)	(-6.741610e-05 3.464408e-04 4.104402e-07)
0.002825      	(-8.600370e-04 8.682720e-04 -4.084823e-02)	(-7.920742e-04 5.190212e-04 -4.084865e-02)	(-6.796278e-05 3.492508e-04 4.140944e-07)
0.00285       	(-8.755766e-04 8.864285e-04 -4.122208e-02)	(-8.070721e-04 5.343932e-04 -4.122250e-02)	(-6.850451e-05 3.520353e-04 4.176054e-07)
0.002875      	(-8.912144e-04 9.046577e-04 -4.159557e-02)	(-8.221735e-04 5.498653e-04 -4.159600e-02)	(-6.904090e-05 3.547924e-04 4.208346e-07)
0.0029        	(-9.068976e-04 9.229282e-04 -4.196520e-02)	(-8.373261e-04 5.654082e-04 -4.196562e-02)	(-6.957156e-05 3.575200e-04 4.239935e-07)
0.002925      	(-9.227209e-04 9.412996e-04 -4.233767e-02)	(-8.526248e-04 5.810835e-04 -4.233810e-02)	(-7.009607e-05 3.602161e-04 4.272662e-07)
0.00295       	(-9.386697e-04 9.597484e-04 -4.271250e-02)	(-8.680557e-04 5.968699e-04 -4.271293e-02)	(-7.061403e-05 3.628785e-04 4.304089e-07)
0.002975      	(-9.546709e-04 9.782202e-04 -4.308514e-02)	(-8.835459e-04 6.127151e-04 -4.308557e-02)	(-7.112502e-05 3.655051e-04 4.332304e-07)
0.003         	(-9.707119e-04 9.967105e-04 -4.345481e-02)	(-8.990832e-04 6.286167e-04 -4.345524e-02)	(-7.162864e-05 3.680938e-04 4.359309e-07)
0.003025      	(-9.908547e-04 1.037786e-03 -4.352055e-02)	(-9.188737e-04 6.678804e-04 -4.352096e-02)	(-7.198107e-05 3.699060e-04 4.074331e-07)
0.00305       	(-1.014222e-03 1.098464e-03 -4.329926e-02)	(-9.420323e-04 7.274852e-04 -4.329964e-02)	(-7.218953e-05 3.709788e-04 3.847234e-07)
0.003075      	(-1.039830e-03 1.174440e-03 -4.282422e-02)	(-9.675790e-04 8.031448e-04 -4.282459e-02)	(-7.225072e-05 3.712953e-04 3.659027e-07)
0.0031        	(-1.066461e-03 1.260352e-03 -4.213151e-02)	(-9.943012e-04 8.895226e-04 -4.213186e-02)	(-7.215960e-05 3.708295e-04 3.507192e-07)
0.003125      	(-1.089237e-03 1.329984e-03 -4.156231e-02)	(-1.017180e-03 9.596793e-04 -4.156268e-02)	(-7.205698e-05 3.703045e-04 3.701671e-07)
0.00315       	(-1.108191e-03 1.382077e-03 -4.114006e-02)	(-1.036255e-03 1.012392e-03 -4.114044e-02)	(-7.193591e-05 3.696845e-04 3.863249e-07)
0.003175      	(-1.123777e-03 1.417304e-03 -4.088048e-02)	(-1.051976e-03 1.048307e-03 -4.088088e-02)	(-7.180183e-05 3.689974e-04 3.992064e-07)
0.0032        	(-1.136799e-03 1.438486e-03 -4.077973e-02)	(-1.065136e-03 1.070204e-03 -4.078014e-02)	(-7.166237e-05 3.682824e-04 4.071261e-07)
0.003225      	(-1.148469e-03 1.449887e-03 -4.082920e-02)	(-1.076948e-03 1.082326e-03 -4.082961e-02)	(-7.152181e-05 3.675615e-04 4.096592e-07)
0.00325       	(-1.159682e-03 1.455625e-03 -4.099709e-02)	(-1.088302e-03 1.088794e-03 -4.099750e-02)	(-7.137946e-05 3.668312e-04 4.076657e-07)
0.003275      	(-1.171144e-03 1.459158e-03 -4.124990e-02)	(-1.099913e-03 1.093090e-03 -4.125031e-02)	(-7.123082e-05 3.660683e-04 4.031646e-07)
0.0033        	(-1.183339e-03 1.462991e-03 -4.155705e-02)	(-1.112269e-03 1.097749e-03 -4.155745e-02)	(-7.106993e-05 3.652424e-04 3.981155e-07)
0.003325      	(-1.196741e-03 1.468952e-03 -4.190063e-02)	(-1.125850e-03 1.104624e-03 -4.190103e-02)	(-7.089183e-05 3.643280e-04 3.942926e-07)
0.00335       	(-1.211442e-03 1.477953e-03 -4.225618e-02)	(-1.140748e-03 1.114641e-03 -4.225657e-02)	(-7.069397e-05 3.633122e-04 3.923412e-07)
0.003375      	(-1.227220e-03 1.490225e-03 -4.259499e-02)	(-1.156744e-03 1.128029e-03 -4.259538e-02)	(-7.047654e-05 3.621958e-04 3.925096e-07)
0.0034        	(-1.243929e-03 1.505713e-03 -4.290236e-02)	(-1.173688e-03 1.144723e-03 -4.290275e-02)	(-7.024171e-05 3.609901e-04 3.948003e-07)
0.003425      	(-1.261294e-03 1.524025e-03 -4.316576e-02)	(-1.191301e-03 1.164314e-03 -4.316616e-02)	(-6.999249e-05 3.597105e-04 3.991222e-07)
0.00345       	(-1.279182e-03 1.544693e-03 -4.338660e-02)	(-1.209450e-03 1.186321e-03 -4.338701e-02)	(-6.973168e-05 3.583714e-04 4.049364e-07)
0.003475      	(-1.297150e-03 1.566809e-03 -4.355812e-02)	(-1.227689e-03 1.209827e-03 -4.355853e-02)	(-6.946112e-05 3.569823e-04 4.117544e-07)
0.0035        	(-1.314807e-03 1.589462e-03 -4.367890e-02)	(-1.245626e-03 1.233916e-03 -4.367932e-02)	(-6.918137e-05 3.555460e-04 4.189383e-07)
0.003525      	(-1.332008e-03 1.611898e-03 -4.376058e-02)	(-1.263116e-03 1.257838e-03 -4.376101e-02)	(-6.889205e-05 3.540605e-04 4.263817e-07)
0.00355       	(-1.348546e-03 1.633388e-03 -4.381037e-02)	(-1.279954e-03 1.280868e-03 -4.381081e-02)	(-6.859204e-05 3.525201e-04 4.334551e-07)
0.003575      	(-1.364191e-03 1.653286e-03 -4.383213e-02)	(-1.295911e-03 1.302369e-03 -4.383257e-02)	(-6.827998e-05 3.509178e-04 4.395793e-07)
0.0036        	(-1.379060e-03 1.671371e-03 -4.384112e-02)	(-1.311105e-03 1.322122e-03 -4.384157e-02)	(-6.795489e-05 3.492485e-04 4.445610e-07)
0.003625      	(-1.393124e-03 1.687442e-03 -4.384245e-02)	(-1.325508e-03 1.339933e-03 -4.384290e-02)	(-6.761608e-05 3.475088e-04 4.478876e-07)
0.00365       	(-1.406366e-03 1.701377e-03 -4.383884e-02)	(-1.339102e-03 1.355676e-03 -4.383929e-02)	(-6.726402e-05 3.457009e-04 4.497302e-07)
0.003675      	(-1.418981e-03 1.713504e-03 -4.383734e-02)	(-1.352082e-03 1.369677e-03 -4.383779e-02)	(-6.689911e-05 3.438268e-04 4.497454e-07)
0.0037        	(-1.431222e-03 1.724224e-03 -4.384494e-02)	(-1.364700e-03 1.382334e-03 -4.384539e-02)	(-6.652198e-05 3.418900e-04 4.478750e-07)
0.003725      	(-1.443129e-03 1.733805e-03 -4.385856e-02)	(-1.376996e-03 1.393910e-03 -4.385900e-02)	(-6.613355e-05 3.398950e-04 4.442445e-07)
0.00375       	(-1.455036e-03 1.742822e-03 -4.388577e-02)	(-1.389301e-03 1.404976e-03 -4.388621e-02)	(-6.573476e-05 3.378468e-04 4.394325e-07)
0.003775      	(-1.467116e-03 1.751746e-03 -4.392754e-02)	(-1.401790e-03 1.415996e-03 -4.392797e-02)	(-6.532654e-05 3.357500e-04 4.335291e-07)
0.0038        	(-1.479393e-03 1.760800e-03 -4.397908e-02)	(-1.414483e-03 1.427192e-03 -4.397951e-02)	(-6.490964e-05 3.336087e-04 4.266941e-07)
0.003825      	(-1.492016e-03 1.770300e-03 -4.404134e-02)	(-1.427531e-03 1.438874e-03 -4.404176e-02)	(-6.448464e-05 3.314258e-04 4.193230e-07)
0.00385       	(-1.505027e-03 1.780412e-03 -4.411206e-02)	(-1.440975e-03 1.451208e-03 -4.411247e-02)	(-6.405201e-05 3.292036e-04 4.114896e-07)
0.003875      	(-1.518312e-03 1.791124e-03 -4.418381e-02)	(-1.454699e-03 1.464179e-03 -4.418421e-02)	(-6.361214e-05 3.269443e-04 4.035299e-07)
0.0039        	(-1.532080e-03 1.802695e-03 -4.426230e-02)	(-1.468915e-03 1.478045e-03 -4.426270e-02)	(-6.316535e-05 3.246495e-04 3.953527e-07)
0.003925      	(-1.546145e-03 1.814919e-03 -4.433977e-02)	(-1.483433e-03 1.492598e-03 -4.434016e-02)	(-6.271194e-05 3.223206e-04 3.868341e-07)
0.00395       	(-1.560255e-03 1.827522e-03 -4.440681e-02)	(-1.498003e-03 1.507563e-03 -4.440719e-02)	(-6.225222e-05 3.199594e-04 3.780012e-07)
0.003975      	(-1.574526e-03 1.840499e-03 -4.446911e-02)	(-1.512740e-03 1.522932e-03 -4.446948e-02)	(-6.178651e-05 3.175674e-04 3.688985e-07)
0.004         	(-1.588742e-03 1.853551e-03 -4.452043e-02)	(-1.527427e-03 1.538405e-03 -4.452078e-02)	(-6.131513e-05 3.151462e-04 3.593712e-07)
0.004025      	(-1.602699e-03 1.866392e-03 -4.455551e-02)	(-1.541861e-03 1.553695e-03 -4.455586e-02)	(-6.083843e-05 3.126978e-04 3.496188e-07)
0.00405       	(-1.616516e-03 1.879053e-03 -4.458113e-02)	(-1.556160e-03 1.568830e-03 -4.458147e-02)	(-6.035680e-05 3.102239e-04 3.395534e-07)
0.004075      	(-1.630034e-03 1.891292e-03 -4.459442e-02)	(-1.570164e-03 1.583566e-03 -4.459475e-02)	(-5.987058e-05 3.077265e-04 3.291465e-07)
0.0041        	(-1.643063e-03 1.902879e-03 -4.459111e-02)	(-1.583683e-03 1.597672e-03 -4.459143e-02)	(-5.938015e-05 3.052074e-04 3.184293e-07)
0.004125      	(-1.655817e-03 1.913943e-03 -4.458124e-02)	(-1.596931e-03 1.611275e-03 -4.458155e-02)	(-5.888585e-05 3.026684e-04 3.076062e-07)
0.00415       	(-1.668244e-03 1.924423e-03 -4.456451e-02)	(-1.609856e-03 1.624313e-03 -4.456480e-02)	(-5.838798e-05 3.001109e-04 2.966665e-07)
0.004175      	(-1.680174e-03 1.934177e-03 -4.453613e-02)	(-1.622287e-03 1.636641e-03 -4.453642e-02)	(-5.788683e-05 2.975367e-04 2.856956e-07)
0.0042        	(-1.691952e-03 1.943552e-03 -4.450822e-02)	(-1.634569e-03 1.648605e-03 -4.450849e-02)	(-5.738265e-05 2.949468e-04 2.747675e-07)
0.004225      	(-1.703558e-03 1.952597e-03 -4.448012e-02)	(-1.646682e-03 1.660255e-03 -4.448038e-02)	(-5.687565e-05 2.923423e-04 2.639644e-07)
0.00425       	(-1.714896e-03 1.961275e-03 -4.444839e-02)	(-1.658530e-03 1.671550e-03 -4.444865e-02)	(-5.636610e-05 2.897247e-04 2.532488e-07)
0.004275      	(-1.726260e-03 1.969879e-03 -4.442256e-02)	(-1.670406e-03 1.682784e-03 -4.442280e-02)	(-5.585416e-05 2.870949e-04 2.429173e-07)
0.0043        	(-1.737655e-03 1.978465e-03 -4.440165e-02)	(-1.682315e-03 1.694012e-03 -4.440189e-02)	(-5.533998e-05 2.844535e-04 2.329146e-07)
0.004325      	(-1.748902e-03 1.986917e-03 -4.437867e-02)	(-1.694079e-03 1.705116e-03 -4.437889e-02)	(-5.482371e-05 2.818014e-04 2.232550e-07)
0.00435       	(-1.760376e-03 1.995633e-03 -4.436418e-02)	(-1.706070e-03 1.716494e-03 -4.436439e-02)	(-5.430551e-05 2.791393e-04 2.139440e-07)
0.004375      	(-1.772014e-03 2.004559e-03 -4.435515e-02)	(-1.718228e-03 1.728091e-03 -4.435535e-02)	(-5.378551e-05 2.764680e-04 2.049716e-07)
0.0044        	(-1.783603e-03 2.013582e-03 -4.434342e-02)	(-1.730339e-03 1.739794e-03 -4.434362e-02)	(-5.326388e-05 2.737882e-04 1.961884e-07)
0.004425      	(-1.795412e-03 2.022907e-03 -4.433714e-02)	(-1.742671e-03 1.751806e-03 -4.433733e-02)	(-5.274076e-05 2.711009e-04 1.877453e-07)
0.00445       	(-1.807329e-03 2.032427e-03 -4.433236e-02)	(-1.755112e-03 1.764020e-03 -4.433254e-02)	(-5.221632e-05 2.684067e-04 1.795721e-07)
0.004475      	(-1.819085e-03 2.041898e-03 -4.432049e-02)	(-1.767394e-03 1.776191e-03 -4.432066e-02)	(-5.169071e-05 2.657065e-04 1.716405e-07)
0.0045        	(-1.830978e-03 2.051583e-03 -4.431060e-02)	(-1.779814e-03 1.788582e-03 -4.431076e-02)	(-5.116411e-05 2.630013e-04 1.639302e-07)
0.004525      	(-1.842908e-03 2.061348e-03 -4.430012e-02)	(-1.792272e-03 1.801056e-03 -4.430027e-02)	(-5.063667e-05 2.602916e-04 1.564067e-07)
0.00455       	(-1.854581e-03 2.070913e-03 -4.428059e-02)	(-1.804472e-03 1.813335e-03 -4.428074e-02)	(-5.010854e-05 2.575784e-04 1.489187e-07)
0.004575      	(-1.866263e-03 2.080506e-03 -4.426101e-02)	(-1.816684e-03 1.825644e-03 -4.426115e-02)	(-4.957988e-05 2.548624e-04 1.415975e-07)
0.0046        	(-1.877842e-03 2.089993e-03 -4.423868e-02)	(-1.828792e-03 1.837849e-03 -4.423881e-02)	(-4.905083e-05 2.521444e-04 1.344100e-07)
0.004625      	(-1.889041e-03 2.099108e-03 -4.420611e-02)	(-1.840520e-03 1.849682e-03 -4.420624e-02)	(-4.852154e-05 2.494251e-04 1.272779e-07)
0.00465       	(-1.900185e-03 2.108146e-03 -4.417328e-02)	(-1.852193e-03 1.861441e-03 -4.417340e-02)	(-4.799217e-05 2.467053e-04 1.202354e-07)
0.004675      	(-1.911233e-03 2.117051e-03 -4.413971e-02)	(-1.863770e-03 1.873065e-03 -4.413982e-02)	(-4.746284e-05 2.439857e-04 1.133209e-07)
0.0047        	(-1.921947e-03 2.125598e-03 -4.409888e-02)	(-1.875013e-03 1.884331e-03 -4.409898e-02)	(-4.693370e-05 2.412670e-04 1.063325e-07)
0.004725      	(-1.932627e-03 2.134080e-03 -4.405984e-02)	(-1.886222e-03 1.895530e-03 -4.405994e-02)	(-4.640487e-05 2.385499e-04 9.949927e-08)
0.00475       	(-1.943223e-03 2.142452e-03 -4.402128e-02)	(-1.897347e-03 1.906617e-03 -4.402137e-02)	(-4.587646e-05 2.358349e-04 9.282840e-08)
0.004775      	(-1.953511e-03 2.150508e-03 -4.397683e-02)	(-1.908162e-03 1.917386e-03 -4.397691e-02)	(-4.534859e-05 2.331226e-04 8.630231e-08)
0.0048        	(-1.963827e-03 2.158591e-03 -4.393555e-02)	(-1.919005e-03 1.928178e-03 -4.393563e-02)	(-4.482138e-05 2.304136e-04 7.997657e-08)
0.004825      	(-1.974183e-03 2.166717e-03 -4.389764e-02)	(-1.929888e-03 1.939008e-03 -4.389771e-02)	(-4.429493e-05 2.277086e-04 7.394894e-08)
0.00485       	(-1.984373e-03 2.174701e-03 -4.385700e-02)	(-1.940603e-03 1.949693e-03 -4.385707e-02)	(-4.376935e-05 2.250079e-04 6.800917e-08)
0.004875      	(-1.994648e-03 2.182784e-03 -4.382047e-02)	(-1.951403e-03 1.960472e-03 -4.382053e-02)	(-4.324470e-05 2.223121e-04 6.237958e-08)
0.0049        	(-2.004968e-03 2.190939e-03 -4.378664e-02)	(-1.962247e-03 1.971318e-03 -4.378670e-02)	(-4.272106e-05 2.196214e-04 5.704915e-08)
0.004925      	(-2.015098e-03 2.198935e-03 -4.374890e-02)	(-1.972899e-03 1.981999e-03 -4.374896e-02)	(-4.219852e-05 2.169363e-04 5.195447e-08)
0.00495       	(-2.025313e-03 2.207060e-03 -4.371432e-02)	(-1.983636e-03 1.992802e-03 -4.371437e-02)	(-4.167716e-05 2.142573e-04 4.722252e-08)
0.004975      	(-2.035634e-03 2.215321e-03 -4.368343e-02)	(-1.994477e-03 2.003736e-03 -4.368347e-02)	(-4.115705e-05 2.115848e-04 4.286481e-08)
0.005         	(-2.045830e-03 2.223491e-03 -4.364975e-02)	(-2.005192e-03 2.014572e-03 -4.364979e-02)	(-4.063829e-05 2.089191e-04 3.868315e-08)
0.005025      	(-2.056065e-03 2.231717e-03 -4.361806e-02)	(-2.015944e-03 2.025456e-03 -4.361809e-02)	(-4.012091e-05 2.062607e-04 3.494770e-08)
0.00505       	(-2.066296e-03 2.239961e-03 -4.358767e-02)	(-2.026691e-03 2.036352e-03 -4.358770e-02)	(-3.960501e-05 2.036098e-04 3.162163e-08)
0.005075      	(-2.076293e-03 2.247982e-03 -4.355252e-02)	(-2.037202e-03 2.047015e-03 -4.355255e-02)	(-3.909063e-05 2.009667e-04 2.851322e-08)
0.0051        	(-2.086230e-03 2.255956e-03 -4.351688e-02)	(-2.047652e-03 2.057624e-03 -4.351690e-02)	(-3.857784e-05 1.983319e-04 2.582085e-08)
0.005125      	(-2.096188e-03 2.263944e-03 -4.348275e-02)	(-2.058121e-03 2.068238e-03 -4.348277e-02)	(-3.806674e-05 1.957058e-04 2.353069e-08)
0.00515       	(-2.106014e-03 2.271792e-03 -4.344682e-02)	(-2.068456e-03 2.078703e-03 -4.344684e-02)	(-3.755742e-05 1.930889e-04 2.150339e-08)
0.005175      	(-2.115743e-03 2.279524e-03 -4.341017e-02)	(-2.078693e-03 2.089042e-03 -4.341019e-02)	(-3.704994e-05 1.904815e-04 1.991852e-08)