# Time forceX forceY forceZ normalForce
2.5e-05 0.00613965 0.00613965 5.57264e-06 -0.00965687
2.5e-05 0.00613965 0.00613965 5.57264e-06 -0.00965687
5e-05 0.00956132 0.00956132 1.11481e-05 -0.0150266
5e-05 0.00956132 0.00956132 1.11481e-05 -0.0150266
7.5e-05 0.0115827 0.0115827 1.68977e-05 -0.0181973
7.5e-05 0.0115827 0.0115827 1.68977e-05 -0.0181973
0.0001 0.0125794 0.0125794 2.27825e-05 -0.0197603
0.0001 0.0125794 0.0125794 2.27825e-05 -0.0197603
0.000125 0.0128233 0.0128233 2.86718e-05 -0.020142
0.000125 0.0128233 0.0128233 2.86718e-05 -0.020142
0.00015 0.012674 0.012674 3.44263e-05 -0.0199075
0.00015 0.012674 0.012674 3.44263e-05 -0.0199075
0.000175 0.0124961 0.0124961 3.99918e-05 -0.0196288
0.000175 0.0124961 0.0124961 3.99918e-05 -0.0196288
0.0002 0.0125029 0.0125029 4.54025e-05 -0.0196403
0.0002 0.0125029 0.0125029 4.54025e-05 -0.0196403
0.000225 0.0127867 0.0127867 5.07436e-05 -0.0200864
0.000225 0.0127867 0.0127867 5.07436e-05 -0.0200864
0.00025 0.013227 0.013227 5.61301e-05 -0.020778
0.00025 0.013227 0.013227 5.61301e-05 -0.020778
0.000275 0.0138998 0.0138998 6.16446e-05 -0.0218344
0.000275 0.0138998 0.0138998 6.16446e-05 -0.0218344
0.0003 0.0145393 0.0145393 6.73132e-05 -0.0228381
0.0003 0.0145393 0.0145393 6.73132e-05 -0.0228381
0.000325 0.0151831 0.0151831 7.31277e-05 -0.0238487
0.000325 0.0151831 0.0151831 7.31277e-05 -0.0238487
0.00035 0.0157736 0.0157736 7.90403e-05 -0.0247758
0.00035 0.0157736 0.0157736 7.90403e-05 -0.0247758
0.000375 0.0163533 0.0163533 8.49951e-05 -0.0256859
0.000375 0.0163533 0.0163533 8.49951e-05 -0.0256859
0.0004 0.0169535 0.0169535 9.09471e-05 -0.0266282
0.0004 0.0169535 0.0169535 9.09471e-05 -0.0266282
0.000425 0.0174841 0.0174841 9.6861e-05 -0.0274614
0.000425 0.0174841 0.0174841 9.6861e-05 -0.0274614
0.00045 0.0182252 0.0182252 0.00010275 -0.0286252
0.00045 0.0182252 0.0182252 0.00010275 -0.0286252
0.000475 0.0189261 0.0189261 0.000108604 -0.0297256
0.000475 0.0189261 0.0189261 0.000108604 -0.0297256
0.0005 0.0196183 0.0196183 0.000114466 -0.0308123
0.0005 0.0196183 0.0196183 0.000114466 -0.0308123
0.000525 0.0203105 0.0203105 0.000120335 -0.0318993
0.000525 0.0203105 0.0203105 0.000120335 -0.0318993
0.00055 0.0210784 0.0210784 0.000126291 -0.0331052
0.00055 0.0210784 0.0210784 0.000126291 -0.0331052
0.000575 0.0216734 0.0216734 0.000132267 -0.0340393
0.000575 0.0216734 0.0216734 0.000132267 -0.0340393
0.0006 0.0222953 0.0222953 0.000138307 -0.035016
0.0006 0.0222953 0.0222953 0.000138307 -0.035016
0.000625 0.0230058 0.0230058 0.000144379 -0.0361319
0.000625 0.0230058 0.0230058 0.000144379 -0.0361319
0.00065 0.0236796 0.0236796 0.000150547 -0.03719
0.00065 0.0236796 0.0236796 0.000150547 -0.03719
0.000675 0.024389 0.024389 0.000156727 -0.0383041
0.000675 0.024389 0.024389 0.000156727 -0.0383041
0.0007 0.0250562 0.0250562 0.000162922 -0.0393518
0.0007 0.0250562 0.0250562 0.000162922 -0.0393518
0.000725 0.0258172 0.0258172 0.000169153 -0.040547
0.000725 0.0258172 0.0258172 0.000169153 -0.040547
0.00075 0.0265359 0.0265359 0.000175468 -0.0416756
0.00075 0.0265359 0.0265359 0.000175468 -0.0416756
0.000775 0.0272927 0.0272927 0.000181733 -0.042864
0.000775 0.0272927 0.0272927 0.000181733 -0.042864
0.0008 0.0280524 0.0280524 0.000188057 -0.0440569
0.0008 0.0280524 0.0280524 0.000188057 -0.0440569
0.000825 0.0287436 0.0287436 0.000194448 -0.0451422
0.000825 0.0287436 0.0287436 0.000194448 -0.0451422
0.00085 0.0296001 0.0296001 0.00020077 -0.0464874
0.00085 0.0296001 0.0296001 0.00020077 -0.0464874
0.000875 0.0303835 0.0303835 0.000207145 -0.0477175
0.000875 0.0303835 0.0303835 0.000207145 -0.0477175
0.0009 0.031115 0.031115 0.000213607 -0.0488661
0.0009 0.031115 0.031115 0.000213607 -0.0488661
0.000925 0.0319226 0.0319226 0.000220074 -0.0501343
0.000925 0.0319226 0.0319226 0.000220074 -0.0501343
0.00095 0.0327652 0.0327653 0.000226502 -0.0514575
0.00095 0.0327652 0.0327653 0.000226502 -0.0514575
0.000975 0.0336081 0.0336081 0.000232969 -0.0527809
0.000975 0.0336081 0.0336081 0.000232969 -0.0527809
0.001 0.0344105 0.0344106 0.000239433 -0.054041
0.001 0.0344105 0.0344106 0.000239433 -0.054041
0.001025 0.035267 0.035267 0.000245768 -0.0553858
0.001025 0.035267 0.035267 0.000245768 -0.0553858
0.00105 0.0360996 0.0360996 0.000252247 -0.0566931
0.00105 0.0360996 0.0360996 0.000252247 -0.0566931
0.001075 0.0369044 0.0369044 0.000258797 -0.057957
0.001075 0.0369044 0.0369044 0.000258797 -0.057957
0.0011 0.037752 0.037752 0.000265312 -0.0592878
0.0011 0.037752 0.037752 0.000265312 -0.0592878
0.001125 0.0386298 0.0386298 0.000271785 -0.0606662
0.001125 0.0386298 0.0386298 0.000271785 -0.0606662
0.00115 0.0395185 0.0395185 0.000278206 -0.0620619
0.00115 0.0395185 0.0395185 0.000278206 -0.0620619
0.001175 0.0403405 0.0403405 0.000284679 -0.0633523
0.001175 0.0403405 0.0403405 0.000284679 -0.0633523
0.0012 0.0412207 0.0412207 0.000291256 -0.0647346
0.0012 0.0412207 0.0412207 0.000291256 -0.0647346
0.001225 0.0422397 0.0422397 0.000297743 -0.0663346
0.001225 0.0422397 0.0422397 0.000297743 -0.0663346
0.00125 0.0429974 0.0429974 0.000304192 -0.0675242
0.00125 0.0429974 0.0429974 0.000304192 -0.0675242
0.001275 0.0438582 0.0438582 0.000310742 -0.0688761
0.001275 0.0438582 0.0438582 0.000310742 -0.0688761
0.0013 0.0446582 0.0446582 0.00031735 -0.0701322
0.0013 0.0446582 0.0446582 0.00031735 -0.0701322
0.001325 0.0454582 0.0454582 0.00032386 -0.0713885
0.001325 0.0454582 0.0454582 0.00032386 -0.0713885
0.00135 0.0466441 0.0466441 0.000330218 -0.0732507
0.00135 0.0466441 0.0466441 0.000330218 -0.0732507
0.001375 0.0476773 0.0476773 0.000336668 -0.0748726
0.001375 0.0476773 0.0476773 0.000336668 -0.0748726
0.0014 0.0485686 0.0485686 0.000343174 -0.0762719
0.0014 0.0485686 0.0485686 0.000343174 -0.0762719
0.001425 0.0493136 0.0493136 0.000349914 -0.0774418
0.001425 0.0493136 0.0493136 0.000349914 -0.0774418
0.00145 0.0504659 0.0504659 0.00035621 -0.0792515
0.00145 0.0504659 0.0504659 0.00035621 -0.0792515
0.001475 0.0509404 0.0509404 0.000362913 -0.0799964
0.001475 0.0509404 0.0509404 0.000362913 -0.0799964
0.0015 0.0523709 0.0523709 0.00036937 -0.0822429
0.0015 0.0523709 0.0523709 0.00036937 -0.0822429
0.001525 0.0530226 0.0530226 0.00037581 -0.0832655
0.001525 0.0530226 0.0530226 0.00037581 -0.0832655
0.00155 0.0539786 0.0539786 0.000382344 -0.0847671
0.00155 0.0539786 0.0539786 0.000382344 -0.0847671
0.001575 0.0547715 0.0547715 0.00038856 -0.0860121
0.001575 0.0547715 0.0547715 0.00038856 -0.0860121
0.0016 0.0558635 0.0558635 0.000395101 -0.0877268
0.0016 0.0558635 0.0558635 0.000395101 -0.0877268
0.001625 0.0567632 0.0567632 0.000401711 -0.0891394
0.001625 0.0567632 0.0567632 0.000401711 -0.0891394
0.00165 0.0576923 0.0576923 0.000408192 -0.0905984
0.00165 0.0576923 0.0576923 0.000408192 -0.0905984
0.001675 0.058733 0.058733 0.000414648 -0.0922326
0.001675 0.058733 0.058733 0.000414648 -0.0922326
0.0017 0.0596 0.0596 0.000421095 -0.0935937
0.0017 0.0596 0.0596 0.000421095 -0.0935937
0.001725 0.0605202 0.0605202 0.000427459 -0.0950388
0.001725 0.0605202 0.0605202 0.000427459 -0.0950388
0.00175 0.0614849 0.0614849 0.000433728 -0.0965536
0.00175 0.0614849 0.0614849 0.000433728 -0.0965536
0.001775 0.0623581 0.0623581 0.000440256 -0.0979247
0.001775 0.0623581 0.0623581 0.000440256 -0.0979247
0.0018 0.0634039 0.0634039 0.000446439 -0.099567
0.0018 0.0634039 0.0634039 0.000446439 -0.099567
0.001825 0.0643227 0.0643227 0.000452805 -0.101009
0.001825 0.0643227 0.0643227 0.000452805 -0.101009
0.00185 0.0653639 0.0653639 0.000459314 -0.102644
0.00185 0.0653639 0.0653639 0.000459314 -0.102644
0.001875 0.0662285 0.0662285 0.000465908 -0.104002
0.001875 0.0662285 0.0662285 0.000465908 -0.104002
0.0019 0.0672318 0.0672318 0.000472138 -0.105578
0.0019 0.0672318 0.0672318 0.000472138 -0.105578
0.001925 0.0682263 0.0682263 0.000478182 -0.107139
0.001925 0.0682263 0.0682263 0.000478182 -0.107139
0.00195 0.0693166 0.0693166 0.000484757 -0.108851
0.00195 0.0693166 0.0693166 0.000484757 -0.108851
0.001975 0.0701765 0.0701766 0.000491249 -0.110201
0.001975 0.0701765 0.0701766 0.000491249 -0.110201
0.002 0.0708705 0.0708706 0.000497137 -0.111291
0.002 0.0708705 0.0708706 0.000497137 -0.111291
0.002025 0.0719404 0.0719404 0.000503368 -0.112971
0.002025 0.0719404 0.0719404 0.000503368 -0.112971
0.00205 0.0729089 0.0729089 0.000509956 -0.114492
0.00205 0.0729089 0.0729089 0.000509956 -0.114492
0.002075 0.0738575 0.0738575 0.00051607 -0.115981
0.002075 0.0738575 0.0738575 0.00051607 -0.115981
0.0021 0.0748752 0.0748752 0.000522223 -0.117579
0.0021 0.0748752 0.0748752 0.000522223 -0.117579
0.002125 0.0759069 0.0759069 0.000528467 -0.119199
0.002125 0.0759069 0.0759069 0.000528467 -0.119199
0.00215 0.0768655 0.0768655 0.000534648 -0.120704
0.00215 0.0768655 0.0768655 0.000534648 -0.120704
0.002175 0.0777787 0.0777787 0.000540824 -0.122138
0.002175 0.0777787 0.0777787 0.000540824 -0.122138
0.0022 0.0787207 0.0787208 0.0005471 -0.123617
0.0022 0.0787207 0.0787208 0.0005471 -0.123617
0.002225 0.0796434 0.0796434 0.00055363 -0.125066
0.002225 0.0796434 0.0796434 0.00055363 -0.125066
0.00225 0.0806241 0.0806241 0.000559559 -0.126606
0.00225 0.0806241 0.0806241 0.000559559 -0.126606
0.002275 0.0815308 0.0815308 0.000565916 -0.12803
0.002275 0.0815308 0.0815308 0.000565916 -0.12803
0.0023 0.0829007 0.0829007 0.000572046 -0.130181
0.0023 0.0829007 0.0829007 0.000572046 -0.130181
0.002325 0.0834652 0.0834652 0.000577851 -0.131067
0.002325 0.0834652 0.0834652 0.000577851 -0.131067
0.00235 0.0840775 0.0840775 0.000584081 -0.132029
0.00235 0.0840775 0.0840775 0.000584081 -0.132029
0.002375 0.0853038 0.0853038 0.000590269 -0.133955
0.002375 0.0853038 0.0853038 0.000590269 -0.133955
0.0024 0.0864308 0.0864308 0.000595914 -0.135724
0.0024 0.0864308 0.0864308 0.000595914 -0.135724
0.002425 0.0873273 0.0873273 0.000601886 -0.137131
0.002425 0.0873273 0.0873273 0.000601886 -0.137131
0.00245 0.0882504 0.0882504 0.000608375 -0.138581
0.00245 0.0882504 0.0882504 0.000608375 -0.138581
0.002475 0.0893282 0.0893281 0.000614209 -0.140273
0.002475 0.0893282 0.0893281 0.000614209 -0.140273
0.0025 0.0899268 0.0899267 0.000620186 -0.141213
0.0025 0.0899268 0.0899267 0.000620186 -0.141213
0.002525 0.09108 0.09108 0.000625775 -0.143024
0.002525 0.09108 0.09108 0.000625775 -0.143024
0.00255 0.0919372 0.0919372 0.000632114 -0.14437
0.00255 0.0919372 0.0919372 0.000632114 -0.14437
0.002575 0.0931247 0.0931247 0.000637931 -0.146235
0.002575 0.0931247 0.0931247 0.000637931 -0.146235
0.0026 0.0940161 0.0940161 0.000644089 -0.147634
0.0026 0.0940161 0.0940161 0.000644089 -0.147634
0.002625 0.0951276 0.0951276 0.000649433 -0.14938
0.002625 0.0951276 0.0951276 0.000649433 -0.14938
0.00265 0.0959664 0.0959663 0.000655702 -0.150696
0.00265 0.0959664 0.0959663 0.000655702 -0.150696
0.002675 0.0967509 0.0967509 0.000661474 -0.151929
0.002675 0.0967509 0.0967509 0.000661474 -0.151929
0.0027 0.0976188 0.0976188 0.000667005 -0.153292
0.0027 0.0976188 0.0976188 0.000667005 -0.153292
0.002725 0.0987124 0.0987123 0.000673024 -0.155009
0.002725 0.0987124 0.0987123 0.000673024 -0.155009
0.00275 0.0996027 0.0996027 0.000678628 -0.156407
0.00275 0.0996027 0.0996027 0.000678628 -0.156407
0.002775 0.100415 0.100415 0.000684007 -0.157682
0.002775 0.100415 0.100415 0.000684007 -0.157682
0.0028 0.101522 0.101522 0.000689349 -0.159421
0.0028 0.101522 0.101522 0.000689349 -0.159421
0.002825 0.102322 0.102322 0.000694947 -0.160676
0.002825 0.102322 0.102322 0.000694947 -0.160676
0.00285 0.103405 0.103405 0.000700505 -0.162377
0.00285 0.103405 0.103405 0.000700505 -0.162377
0.002875 0.104405 0.104405 0.000706137 -0.163947
0.002875 0.104405 0.104405 0.000706137 -0.163947
0.0029 0.105261 0.105261 0.000711484 -0.165292
0.0029 0.105261 0.105261 0.000711484 -0.165292
0.002925 0.106289 0.106289 0.00071644 -0.166907
0.002925 0.106289 0.106289 0.00071644 -0.166907
0.00295 0.107163 0.107162 0.000722247 -0.168277
0.00295 0.107163 0.107162 0.000722247 -0.168277
0.002975 0.107918 0.107918 0.000727428 -0.169464
0.002975 0.107918 0.107918 0.000727428 -0.169464
0.003 0.108963 0.108962 0.000732426 -0.171105
0.003 0.108963 0.108962 0.000732426 -0.171105
0.003025 0.108267 0.108267 0.000735452 -0.170009
0.003025 0.108267 0.108267 0.000735452 -0.170009
0.00305 0.106902 0.106902 0.000738161 -0.167862
0.00305 0.106902 0.106902 0.000738161 -0.167862
0.003075 0.104808 0.104807 0.000738108 -0.16457
0.003075 0.104808 0.104807 0.000738108 -0.16457
0.0031 0.102529 0.102529 0.000737772 -0.160991
0.0031 0.102529 0.102529 0.000737772 -0.160991
0.003125 0.101948 0.101948 0.00073655 -0.160081
0.003125 0.101948 0.101948 0.00073655 -0.160081
0.00315 0.102099 0.102099 0.00073505 -0.160319
0.00315 0.102099 0.102099 0.00073505 -0.160319
0.003175 0.102924 0.102924 0.000733719 -0.161616
0.003175 0.102924 0.102924 0.000733719 -0.161616
0.0032 0.103813 0.103813 0.000732198 -0.163012
0.0032 0.103813 0.103813 0.000732198 -0.163012
0.003225 0.104697 0.104697 0.000730631 -0.1644
0.003225 0.104697 0.104697 0.000730631 -0.1644
0.00325 0.105302 0.105302 0.000729141 -0.165348
0.00325 0.105302 0.105302 0.000729141 -0.165348
0.003275 0.105847 0.105847 0.00072784 -0.166204
0.003275 0.105847 0.105847 0.00072784 -0.166204
0.0033 0.106288 0.106287 0.000725772 -0.166896
0.0033 0.106288 0.106287 0.000725772 -0.166896
0.003325 0.106551 0.106551 0.000723726 -0.16731
0.003325 0.106551 0.106551 0.000723726 -0.16731
0.00335 0.106853 0.106852 0.000721591 -0.167784
0.00335 0.106853 0.106852 0.000721591 -0.167784
0.003375 0.107116 0.107116 0.000719924 -0.168198
0.003375 0.107116 0.107116 0.000719924 -0.168198
0.0034 0.107468 0.107467 0.000716708 -0.16875
0.0034 0.107468 0.107467 0.000716708 -0.16875
0.003425 0.10782 0.107819 0.000714235 -0.169303
0.003425 0.10782 0.107819 0.000714235 -0.169303
0.00345 0.108045 0.108045 0.000711956 -0.169657
0.00345 0.108045 0.108045 0.000711956 -0.169657
0.003475 0.108277 0.108277 0.00070852 -0.170021
0.003475 0.108277 0.108277 0.00070852 -0.170021
0.0035 0.108401 0.108401 0.000706245 -0.170217
0.0035 0.108401 0.108401 0.000706245 -0.170217
0.003525 0.108634 0.108633 0.000702829 -0.170582
0.003525 0.108634 0.108633 0.000702829 -0.170582
0.00355 0.108974 0.108974 0.00069957 -0.171117
0.00355 0.108974 0.108974 0.00069957 -0.171117
0.003575 0.109032 0.109032 0.000696881 -0.171208
0.003575 0.109032 0.109032 0.000696881 -0.171208
0.0036 0.109173 0.109172 0.000693366 -0.171429
0.0036 0.109173 0.109172 0.000693366 -0.171429
0.003625 0.109473 0.109473 0.00068996 -0.171901
0.003625 0.109473 0.109473 0.00068996 -0.171901
0.00365 0.109664 0.109664 0.000686072 -0.172201
0.00365 0.109664 0.109664 0.000686072 -0.172201
0.003675 0.10998 0.109979 0.000682419 -0.172696
0.003675 0.10998 0.109979 0.000682419 -0.172696
0.0037 0.110136 0.110136 0.000678194 -0.172942
0.0037 0.110136 0.110136 0.000678194 -0.172942
0.003725 0.110272 0.110271 0.000674324 -0.173154
0.003725 0.110272 0.110271 0.000674324 -0.173154
0.00375 0.110613 0.110612 0.000670276 -0.17369
0.00375 0.110613 0.110612 0.000670276 -0.17369
0.003775 0.110539 0.110538 0.000665919 -0.173574
0.003775 0.110539 0.110538 0.000665919 -0.173574
0.0038 0.110719 0.110719 0.000661961 -0.173858
0.0038 0.110719 0.110719 0.000661961 -0.173858
0.003825 0.11072 0.11072 0.000657697 -0.173859
0.003825 0.11072 0.11072 0.000657697 -0.173859
0.00385 0.110923 0.110922 0.000652898 -0.174177
0.00385 0.110923 0.110922 0.000652898 -0.174177
0.003875 0.110945 0.110945 0.000648222 -0.174212
0.003875 0.110945 0.110945 0.000648222 -0.174212
0.0039 0.111063 0.111063 0.000643913 -0.174398
0.0039 0.111063 0.111063 0.000643913 -0.174398
0.003925 0.110926 0.110926 0.000639212 -0.174183
0.003925 0.110926 0.110926 0.000639212 -0.174183
0.00395 0.111291 0.111291 0.000634062 -0.174757
0.00395 0.111291 0.111291 0.000634062 -0.174757
0.003975 0.11128 0.11128 0.000629634 -0.174738
0.003975 0.11128 0.11128 0.000629634 -0.174738
0.004 0.111514 0.111514 0.000624797 -0.175107
0.004 0.111514 0.111514 0.000624797 -0.175107
0.004025 0.111544 0.111544 0.000619751 -0.175154
0.004025 0.111544 0.111544 0.000619751 -0.175154
0.00405 0.111489 0.111488 0.000614861 -0.175067
0.00405 0.111489 0.111488 0.000614861 -0.175067
0.004075 0.111493 0.111493 0.000609726 -0.175074
0.004075 0.111493 0.111493 0.000609726 -0.175074
0.0041 0.111477 0.111477 0.000604523 -0.175049
0.0041 0.111477 0.111477 0.000604523 -0.175049
0.004125 0.111446 0.111446 0.000599305 -0.175
0.004125 0.111446 0.111446 0.000599305 -0.175
0.00415 0.111501 0.111501 0.000594347 -0.175087
0.00415 0.111501 0.111501 0.000594347 -0.175087
0.004175 0.111417 0.111417 0.000589096 -0.174955
0.004175 0.111417 0.111417 0.000589096 -0.174955
0.0042 0.111354 0.111354 0.000583905 -0.174856
0.0042 0.111354 0.111354 0.000583905 -0.174856
0.004225 0.111527 0.111527 0.000578478 -0.175128
0.004225 0.111527 0.111527 0.000578478 -0.175128
0.00425 0.111476 0.111476 0.000573304 -0.175048
0.00425 0.111476 0.111476 0.000573304 -0.175048
0.004275 0.111463 0.111463 0.000567801 -0.175028
0.004275 0.111463 0.111463 0.000567801 -0.175028
0.0043 0.11131 0.11131 0.000562542 -0.174788
0.0043 0.11131 0.11131 0.000562542 -0.174788
0.004325 0.111315 0.111315 0.000557188 -0.174796
0.004325 0.111315 0.111315 0.000557188 -0.174796
0.00435 0.111401 0.1114 0.000551707 -0.17493
0.00435 0.111401 0.1114 0.000551707 -0.17493
0.004375 0.111367 0.111367 0.000546277 -0.174878
0.004375 0.111367 0.111367 0.000546277 -0.174878
0.0044 0.111287 0.111287 0.000540903 -0.174753
0.0044 0.111287 0.111287 0.000540903 -0.174753
0.004425 0.111044 0.111044 0.000535417 -0.174371
0.004425 0.111044 0.111044 0.000535417 -0.174371
0.00445 0.111076 0.111076 0.000529933 -0.174422
0.00445 0.111076 0.111076 0.000529933 -0.174422
0.004475 0.111019 0.111019 0.000524463 -0.174332
0.004475 0.111019 0.111019 0.000524463 -0.174332
0.0045 0.110976 0.110975 0.000518961 -0.174264
0.0045 0.110976 0.110975 0.000518961 -0.174264
0.004525 0.110967 0.110967 0.000513463 -0.174251
0.004525 0.110967 0.110967 0.000513463 -0.174251
0.00455 0.111008 0.111008 0.000507947 -0.174315
0.00455 0.111008 0.111008 0.000507947 -0.174315
0.004575 0.110756 0.110756 0.000502408 -0.17392
0.004575 0.110756 0.110756 0.000502408 -0.17392
0.0046 0.110645 0.110645 0.000496927 -0.173746
0.0046 0.110645 0.110645 0.000496927 -0.173746
0.004625 0.110717 0.110717 0.000491328 -0.173859
0.004625 0.110717 0.110717 0.000491328 -0.173859
0.00465 0.110464 0.110464 0.000485874 -0.173461
0.00465 0.110464 0.110464 0.000485874 -0.173461
0.004675 0.110315 0.110315 0.000480249 -0.173228
0.004675 0.110315 0.110315 0.000480249 -0.173228
0.0047 0.110319 0.110319 0.000474807 -0.173235
0.0047 0.110319 0.110319 0.000474807 -0.173235
0.004725 0.11027 0.11027 0.000469248 -0.173157
0.004725 0.11027 0.11027 0.000469248 -0.173157
0.00475 0.110197 0.110197 0.000463734 -0.173043
0.00475 0.110197 0.110197 0.000463734 -0.173043
0.004775 0.110129 0.110129 0.000458278 -0.172937
0.004775 0.110129 0.110129 0.000458278 -0.172937
0.0048 0.110044 0.110044 0.000452755 -0.172802
0.0048 0.110044 0.110044 0.000452755 -0.172802
0.004825 0.109925 0.109925 0.00044712 -0.172616
0.004825 0.109925 0.109925 0.00044712 -0.172616
0.00485 0.10983 0.10983 0.000441729 -0.172468
0.00485 0.10983 0.10983 0.000441729 -0.172468
0.004875 0.10972 0.10972 0.000436216 -0.172295
0.004875 0.10972 0.10972 0.000436216 -0.172295
0.0049 0.109614 0.109614 0.000430731 -0.172128
0.0049 0.109614 0.109614 0.000430731 -0.172128
0.004925 0.109367 0.109367 0.000425123 -0.171741
0.004925 0.109367 0.109367 0.000425123 -0.171741
0.00495 0.109412 0.109412 0.000419677 -0.171812
0.00495 0.109412 0.109412 0.000419677 -0.171812
0.004975 0.109466 0.109466 0.000414415 -0.171897
0.004975 0.109466 0.109466 0.000414415 -0.171897
0.005 0.10926 0.10926 0.000408939 -0.171572
0.005 0.10926 0.10926 0.000408939 -0.171572
0.005025 0.109157 0.109157 0.000403387 -0.171411
0.005025 0.109157 0.109157 0.000403387 -0.171411
0.00505 0.108997 0.108997 0.000398186 -0.17116
0.00505 0.108997 0.108997 0.000398186 -0.17116
0.005075 0.108924 0.108923 0.000392802 -0.171045
0.005075 0.108924 0.108923 0.000392802 -0.171045
0.0051 0.108814 0.108814 0.00038743 -0.170873
0.0051 0.108814 0.108814 0.00038743 -0.170873
0.005125 0.108661 0.108661 0.000382163 -0.170633
0.005125 0.108661 0.108661 0.000382163 -0.170633
0.00515 0.108592 0.108592 0.000376638 -0.170524
0.00515 0.108592 0.108592 0.000376638 -0.170524
0.005175 0.108475 0.108475 0.000371419 -0.170341
0.005175 0.108475 0.108475 0.000371419 -0.170341
0.0052 0.108288 0.108288 0.000366125 -0.170047
0.0052 0.108288 0.108288 0.000366125 -0.170047
0.005225 0.108499 0.108499 0.000360977 -0.170378
0.005225 0.108499 0.108499 0.000360977 -0.170378
0.00525 0.108193 0.108193 0.000355553 -0.169898
0.00525 0.108193 0.108193 0.000355553 -0.169898
0.005275 0.108119 0.108119 0.000350416 -0.169782
0.005275 0.108119 0.108119 0.000350416 -0.169782
0.0053 0.107983 0.107983 0.000345405 -0.169568
0.0053 0.107983 0.107983 0.000345405 -0.169568
0.005325 0.107864 0.107864 0.000340264 -0.169382
0.005325 0.107864 0.107864 0.000340264 -0.169382
0.00535 0.107696 0.107696 0.00033492 -0.169118
0.00535 0.107696 0.107696 0.00033492 -0.169118
0.005375 0.107654 0.107654 0.000329984 -0.169052
0.005375 0.107654 0.107654 0.000329984 -0.169052
0.0054 0.107494 0.107494 0.000324818 -0.168802
0.0054 0.107494 0.107494 0.000324818 -0.168802
0.005425 0.107437 0.107437 0.000319971 -0.168712
0.005425 0.107437 0.107437 0.000319971 -0.168712
0.00545 0.107455 0.107455 0.00031487 -0.16874
0.00545 0.107455 0.107455 0.00031487 -0.16874
0.005475 0.107365 0.107365 0.000309787 -0.168598
0.005475 0.107365 0.107365 0.000309787 -0.168598
0.0055 0.107286 0.107286 0.000305028 -0.168475
0.0055 0.107286 0.107286 0.000305028 -0.168475
0.005525 0.107154 0.107154 0.000300091 -0.168267
0.005525 0.107154 0.107154 0.000300091 -0.168267
0.00555 0.10687 0.10687 0.000295288 -0.167821
0.00555 0.10687 0.10687 0.000295288 -0.167821
0.005575 0.106825 0.106825 0.000290529 -0.167751
0.005575 0.106825 0.106825 0.000290529 -0.167751
0.0056 0.1068 0.1068 0.000285773 -0.167711
0.0056 0.1068 0.1068 0.000285773 -0.167711
0.005625 0.106691 0.106691 0.000280992 -0.16754
0.005625 0.106691 0.106691 0.000280992 -0.16754
0.00565 0.106632 0.106632 0.000276405 -0.167448
0.00565 0.106632 0.106632 0.000276405 -0.167448
0.005675 0.106532 0.106532 0.000271891 -0.16729
0.005675 0.106532 0.106532 0.000271891 -0.16729
0.0057 0.106429 0.106429 0.000267448 -0.167129
0.0057 0.106429 0.106429 0.000267448 -0.167129
0.005725 0.106329 0.106329 0.000263015 -0.166972
0.005725 0.106329 0.106329 0.000263015 -0.166972
0.00575 0.106263 0.106263 0.000258587 -0.166869
0.00575 0.106263 0.106263 0.000258587 -0.166869
0.005775 0.106104 0.106104 0.000254259 -0.166619
0.005775 0.106104 0.106104 0.000254259 -0.166619
0.0058 0.106086 0.106086 0.000250096 -0.166591
0.0058 0.106086 0.106086 0.000250096 -0.166591
0.005825 0.10591 0.10591 0.00024614 -0.166314
0.005825 0.10591 0.10591 0.00024614 -0.166314
0.00585 0.1058 0.1058 0.000242029 -0.166141
0.00585 0.1058 0.1058 0.000242029 -0.166141
0.005875 0.105712 0.105712 0.000238133 -0.166003
0.005875 0.105712 0.105712 0.000238133 -0.166003
0.0059 0.105623 0.105623 0.000234269 -0.165863
0.0059 0.105623 0.105623 0.000234269 -0.165863
0.005925 0.105524 0.105524 0.000230555 -0.165708
0.005925 0.105524 0.105524 0.000230555 -0.165708
0.00595 0.105478 0.105478 0.000227046 -0.165636
0.00595 0.105478 0.105478 0.000227046 -0.165636
0.005975 0.105381 0.105381 0.00022352 -0.165483
0.005975 0.105381 0.105381 0.00022352 -0.165483
0.006 0.105322 0.105322 0.000220278 -0.165391
0.006 0.105322 0.105322 0.000220278 -0.165391
0.006025 0.105232 0.105232 0.000217375 -0.165249
0.006025 0.105232 0.105232 0.000217375 -0.165249
0.00605 0.105123 0.105122 0.00021396 -0.165077
0.00605 0.105123 0.105122 0.00021396 -0.165077
0.006075 0.105041 0.105041 0.000211163 -0.16495
0.006075 0.105041 0.105041 0.000211163 -0.16495
0.0061 0.104884 0.104884 0.000208369 -0.164702
0.0061 0.104884 0.104884 0.000208369 -0.164702
0.006125 0.104842 0.104841 0.000206027 -0.164636
0.006125 0.104842 0.104841 0.000206027 -0.164636
0.00615 0.104734 0.104734 0.000203395 -0.164468
0.00615 0.104734 0.104734 0.000203395 -0.164468
0.006175 0.104718 0.104718 0.000201166 -0.164442
0.006175 0.104718 0.104718 0.000201166 -0.164442
0.0062 0.104594 0.104594 0.000199112 -0.164247
0.0062 0.104594 0.104594 0.000199112 -0.164247
0.006225 0.104531 0.104531 0.00019736 -0.164148
0.006225 0.104531 0.104531 0.00019736 -0.164148
0.00625 0.104465 0.104464 0.000195552 -0.164044
0.00625 0.104465 0.104464 0.000195552 -0.164044
0.006275 0.104376 0.104376 0.000194134 -0.163905
0.006275 0.104376 0.104376 0.000194134 -0.163905
0.0063 0.104279 0.104279 0.000192839 -0.163753
0.0063 0.104279 0.104279 0.000192839 -0.163753
0.006325 0.104148 0.104148 0.000191686 -0.163546
0.006325 0.104148 0.104148 0.000191686 -0.163546
0.00635 0.104091 0.104091 0.000190738 -0.163457
0.00635 0.104091 0.104091 0.000190738 -0.163457
0.006375 0.104003 0.104003 0.00019 -0.163319
0.006375 0.104003 0.104003 0.00019 -0.163319
0.0064 0.103919 0.103919 0.000189473 -0.163187
0.0064 0.103919 0.103919 0.000189473 -0.163187
0.006425 0.103919 0.103919 0.000189158 -0.163187
0.006425 0.103919 0.103919 0.000189158 -0.163187
0.00645 0.103781 0.103781 0.00018907 -0.16297
0.00645 0.103781 0.103781 0.00018907 -0.16297
0.006475 0.103694 0.103694 0.00018914 -0.162833
0.006475 0.103694 0.103694 0.00018914 -0.162833
0.0065 0.10361 0.10361 0.000189292 -0.162702
0.0065 0.10361 0.10361 0.000189292 -0.162702
0.006525 0.103526 0.103526 0.000189651 -0.162569
0.006525 0.103526 0.103526 0.000189651 -0.162569
0.00655 0.103426 0.103426 0.000190331 -0.162413
0.00655 0.103426 0.103426 0.000190331 -0.162413
0.006575 0.103337 0.103337 0.000191164 -0.162272
0.006575 0.103337 0.103337 0.000191164 -0.162272
0.0066 0.103263 0.103263 0.000192057 -0.162155
0.0066 0.103263 0.103263 0.000192057 -0.162155
0.006625 0.103183 0.103183 0.0001932 -0.16203
0.006625 0.103183 0.103183 0.0001932 -0.16203
0.00665 0.103105 0.103105 0.000194429 -0.161907
0.00665 0.103105 0.103105 0.000194429 -0.161907
0.006675 0.103016 0.103016 0.000195823 -0.161768
0.006675 0.103016 0.103016 0.000195823 -0.161768
0.0067 0.102982 0.102982 0.000197481 -0.161714
0.0067 0.102982 0.102982 0.000197481 -0.161714
0.006725 0.102858 0.102858 0.000199231 -0.16152
0.006725 0.102858 0.102858 0.000199231 -0.16152
0.00675 0.102747 0.102747 0.000201194 -0.161345
0.00675 0.102747 0.102747 0.000201194 -0.161345
0.006775 0.102672 0.102672 0.000203105 -0.161227
0.006775 0.102672 0.102672 0.000203105 -0.161227
0.0068 0.102489 0.102489 0.000205416 -0.16094
0.0068 0.102489 0.102489 0.000205416 -0.16094
0.006825 0.102442 0.102441 0.000207741 -0.160865
0.006825 0.102442 0.102441 0.000207741 -0.160865
0.00685 0.1024 0.1024 0.000210282 -0.1608
0.00685 0.1024 0.1024 0.000210282 -0.1608
0.006875 0.102325 0.102325 0.000212599 -0.160682
0.006875 0.102325 0.102325 0.000212599 -0.160682
0.0069 0.102275 0.102274 0.000215422 -0.160603
0.0069 0.102275 0.102274 0.000215422 -0.160603
0.006925 0.102144 0.102144 0.000218235 -0.160398
0.006925 0.102144 0.102144 0.000218235 -0.160398
0.00695 0.102028 0.102028 0.000221108 -0.160215
0.00695 0.102028 0.102028 0.000221108 -0.160215
0.006975 0.101912 0.101912 0.000224053 -0.160033
0.006975 0.101912 0.101912 0.000224053 -0.160033
0.007 0.101816 0.101816 0.000227034 -0.159883
0.007 0.101816 0.101816 0.000227034 -0.159883
0.007025 0.101738 0.101738 0.000230196 -0.15976
0.007025 0.101738 0.101738 0.000230196 -0.15976
0.00705 0.101637 0.101637 0.000233729 -0.159601
0.00705 0.101637 0.101637 0.000233729 -0.159601
0.007075 0.101518 0.101518 0.000236885 -0.159414
0.007075 0.101518 0.101518 0.000236885 -0.159414
0.0071 0.101462 0.101462 0.000240368 -0.159326
0.0071 0.101462 0.101462 0.000240368 -0.159326
0.007125 0.101324 0.101324 0.000243987 -0.159109
0.007125 0.101324 0.101324 0.000243987 -0.159109
0.00715 0.10126 0.10126 0.000247394 -0.159009
0.00715 0.10126 0.10126 0.000247394 -0.159009
0.007175 0.101107 0.101107 0.000251059 -0.158768
0.007175 0.101107 0.101107 0.000251059 -0.158768
0.0072 0.100966 0.100966 0.000255087 -0.158547
0.0072 0.100966 0.100966 0.000255087 -0.158547
0.007225 0.100913 0.100912 0.000258828 -0.158463
0.007225 0.100913 0.100912 0.000258828 -0.158463
0.00725 0.100762 0.100762 0.000262666 -0.158226
0.00725 0.100762 0.100762 0.000262666 -0.158226
0.007275 0.10067 0.10067 0.000266498 -0.158081
0.007275 0.10067 0.10067 0.000266498 -0.158081
0.0073 0.100568 0.100568 0.000270539 -0.157922
0.0073 0.100568 0.100568 0.000270539 -0.157922
0.007325 0.100478 0.100478 0.000274413 -0.15778
0.007325 0.100478 0.100478 0.000274413 -0.15778
0.00735 0.100439 0.100438 0.000278323 -0.157718
0.00735 0.100439 0.100438 0.000278323 -0.157718
0.007375 0.100208 0.100208 0.000282395 -0.157356
0.007375 0.100208 0.100208 0.000282395 -0.157356
0.0074 0.100054 0.100054 0.00028665 -0.157114
0.0074 0.100054 0.100054 0.00028665 -0.157114
0.007425 0.0999936 0.0999934 0.000290971 -0.157019
0.007425 0.0999936 0.0999934 0.000290971 -0.157019
0.00745 0.0997632 0.0997631 0.000294951 -0.156657
0.00745 0.0997632 0.0997631 0.000294951 -0.156657
0.007475 0.0996451 0.099645 0.000299117 -0.156472
0.007475 0.0996451 0.099645 0.000299117 -0.156472
0.0075 0.0995324 0.0995323 0.000303376 -0.156295
0.0075 0.0995324 0.0995323 0.000303376 -0.156295
0.007525 0.0995241 0.099524 0.000307922 -0.156281
0.007525 0.0995241 0.099524 0.000307922 -0.156281
0.00755 0.0993059 0.0993058 0.000312008 -0.155939
0.00755 0.0993059 0.0993058 0.000312008 -0.155939
0.007575 0.0991959 0.0991957 0.00031659 -0.155766
0.007575 0.0991959 0.0991957 0.00031659 -0.155766
0.0076 0.0989427 0.0989426 0.000320745 -0.155368
0.0076 0.0989427 0.0989426 0.000320745 -0.155368
0.007625 0.0988018 0.0988017 0.000325019 -0.155147
0.007625 0.0988018 0.0988017 0.000325019 -0.155147
0.00765 0.0987436 0.0987435 0.000329452 -0.155056
0.00765 0.0987436 0.0987435 0.000329452 -0.155056
0.007675 0.0985386 0.0985385 0.000333936 -0.154734