# Time Dx Dy Dz magD
2.5e-05 0 -2.37994e-11 -4.99746e-15 2.37994e-11
2.5e-05 0 -2.37994e-11 -4.99746e-15 2.37994e-11
5e-05 0 -1.14836e-11 -1.4111e-13 1.14845e-11
5e-05 0 -1.14836e-11 -1.4111e-13 1.14845e-11
7.5e-05 0 1.93805e-11 -8.00963e-13 1.93971e-11
7.5e-05 0 1.93805e-11 -8.00963e-13 1.93971e-11
0.0001 0 8.93153e-11 -2.5851e-12 8.93527e-11
0.0001 0 8.93153e-11 -2.5851e-12 8.93527e-11
0.000125 0 1.3688e-10 -6.16148e-12 1.37018e-10
0.000125 0 1.3688e-10 -6.16148e-12 1.37018e-10
0.00015 0 1.80966e-10 -1.20931e-11 1.81369e-10
0.00015 0 1.80966e-10 -1.20931e-11 1.81369e-10
0.000175 0 3.68406e-10 -2.02812e-11 3.68963e-10
0.000175 0 3.68406e-10 -2.02812e-11 3.68963e-10
0.0002 0 5.34876e-10 -3.17315e-11 5.35817e-10
0.0002 0 5.34876e-10 -3.17315e-11 5.35817e-10
0.000225 0 7.35236e-10 -4.75102e-11 7.36769e-10
0.000225 0 7.35236e-10 -4.75102e-11 7.36769e-10
0.00025 0 6.25483e-10 -7.03526e-11 6.29427e-10
0.00025 0 6.25483e-10 -7.03526e-11 6.29427e-10
0.000275 0 8.51855e-10 -1.02072e-10 8.57949e-10
0.000275 0 8.51855e-10 -1.02072e-10 8.57949e-10
0.0003 0 1.30374e-09 -1.41999e-10 1.31145e-09
0.0003 0 1.30374e-09 -1.41999e-10 1.31145e-09
0.000325 0 1.26065e-09 -1.8493e-10 1.27414e-09
0.000325 0 1.26065e-09 -1.8493e-10 1.27414e-09
0.00035 0 1.57738e-09 -2.28319e-10 1.59382e-09
0.00035 0 1.57738e-09 -2.28319e-10 1.59382e-09
0.000375 0 1.94944e-09 -2.7176e-10 1.96829e-09
0.000375 0 1.94944e-09 -2.7176e-10 1.96829e-09
0.0004 0 2.46499e-09 -3.17481e-10 2.48535e-09
0.0004 0 2.46499e-09 -3.17481e-10 2.48535e-09
0.000425 0 2.43679e-09 -3.71842e-10 2.465e-09
0.000425 0 2.43679e-09 -3.71842e-10 2.465e-09
0.00045 0 3.02486e-09 -4.42268e-10 3.05702e-09
0.00045 0 3.02486e-09 -4.42268e-10 3.05702e-09
0.000475 0 3.68229e-09 -5.39638e-10 3.72162e-09
0.000475 0 3.68229e-09 -5.39638e-10 3.72162e-09
0.0005 0 4.46362e-09 -6.68547e-10 4.51341e-09
0.0005 0 4.46362e-09 -6.68547e-10 4.51341e-09
0.000525 0 5.17104e-09 -8.27027e-10 5.23675e-09
0.000525 0 5.17104e-09 -8.27027e-10 5.23675e-09
0.00055 0 6.09106e-09 -1.01199e-09 6.17456e-09
0.00055 0 6.09106e-09 -1.01199e-09 6.17456e-09
0.000575 0 6.9975e-09 -1.22742e-09 7.10433e-09
0.000575 0 6.9975e-09 -1.22742e-09 7.10433e-09
0.0006 0 8.3353e-09 -1.48273e-09 8.46616e-09
0.0006 0 8.3353e-09 -1.48273e-09 8.46616e-09
0.000625 0 9.53109e-09 -1.78265e-09 9.69637e-09
0.000625 0 9.53109e-09 -1.78265e-09 9.69637e-09
0.00065 0 1.07364e-08 -2.13084e-09 1.09458e-08
0.00065 0 1.07364e-08 -2.13084e-09 1.09458e-08
0.000675 0 1.22418e-08 -2.53049e-09 1.25006e-08
0.000675 0 1.22418e-08 -2.53049e-09 1.25006e-08
0.0007 0 1.3439e-08 -2.98658e-09 1.37669e-08
0.0007 0 1.3439e-08 -2.98658e-09 1.37669e-08
0.000725 0 1.49445e-08 -3.51369e-09 1.5352e-08
0.000725 0 1.49445e-08 -3.51369e-09 1.5352e-08
0.00075 0 1.66466e-08 -4.1308e-09 1.71515e-08
0.00075 0 1.66466e-08 -4.1308e-09 1.71515e-08
0.000775 0 1.88944e-08 -4.86044e-09 1.95096e-08
0.000775 0 1.88944e-08 -4.86044e-09 1.95096e-08
0.0008 0 2.09604e-08 -5.73274e-09 2.17302e-08
0.0008 0 2.09604e-08 -5.73274e-09 2.17302e-08
0.000825 0 2.24594e-08 -6.77495e-09 2.3459e-08
0.000825 0 2.24594e-08 -6.77495e-09 2.3459e-08
0.00085 0 2.47327e-08 -8.01408e-09 2.59987e-08
0.00085 0 2.47327e-08 -8.01408e-09 2.59987e-08
0.000875 0 2.72469e-08 -9.47654e-09 2.88479e-08
0.000875 0 2.72469e-08 -9.47654e-09 2.88479e-08
0.0009 0 2.96201e-08 -1.1193e-08 3.16644e-08
0.0009 0 2.96201e-08 -1.1193e-08 3.16644e-08
0.000925 0 3.2313e-08 -1.32066e-08 3.49076e-08
0.000925 0 3.2313e-08 -1.32066e-08 3.49076e-08
0.00095 0 3.56583e-08 -1.55643e-08 3.89071e-08
0.00095 0 3.56583e-08 -1.55643e-08 3.89071e-08
0.000975 0 3.91687e-08 -1.8325e-08 4.32434e-08
0.000975 0 3.91687e-08 -1.8325e-08 4.32434e-08
0.001 0 4.21295e-08 -2.15656e-08 4.73283e-08
0.001 0 4.21295e-08 -2.15656e-08 4.73283e-08
0.001025 0 4.59302e-08 -2.53869e-08 5.24793e-08
0.001025 0 4.59302e-08 -2.53869e-08 5.24793e-08
0.00105 0 5.0407e-08 -2.99056e-08 5.86106e-08
0.00105 0 5.0407e-08 -2.99056e-08 5.86106e-08
0.001075 0 5.48859e-08 -3.52619e-08 6.5237e-08
0.001075 0 5.48859e-08 -3.52619e-08 6.5237e-08
0.0011 0 6.11883e-08 -4.1633e-08 7.40089e-08
0.0011 0 6.11883e-08 -4.1633e-08 7.40089e-08
0.001125 0 6.77276e-08 -4.9253e-08 8.3743e-08
0.001125 0 6.77276e-08 -4.9253e-08 8.3743e-08
0.00115 0 7.3896e-08 -5.84023e-08 9.41883e-08
0.00115 0 7.3896e-08 -5.84023e-08 9.41883e-08
0.001175 0 8.01343e-08 -6.93809e-08 1.05996e-07
0.001175 0 8.01343e-08 -6.93809e-08 1.05996e-07
0.0012 0 8.6782e-08 -8.25265e-08 1.19757e-07
0.0012 0 8.6782e-08 -8.25265e-08 1.19757e-07
0.001225 0 9.48935e-08 -9.82507e-08 1.36594e-07
0.001225 0 9.48935e-08 -9.82507e-08 1.36594e-07
0.00125 0 1.02987e-07 -1.17061e-07 1.55916e-07
0.00125 0 1.02987e-07 -1.17061e-07 1.55916e-07
0.001275 0 1.11424e-07 -1.39575e-07 1.78596e-07
0.001275 0 1.11424e-07 -1.39575e-07 1.78596e-07
0.0013 0 1.19774e-07 -1.66519e-07 2.0512e-07
0.0013 0 1.19774e-07 -1.66519e-07 2.0512e-07
0.001325 0 1.28118e-07 -1.98722e-07 2.36441e-07
0.001325 0 1.28118e-07 -1.98722e-07 2.36441e-07
0.00135 0 1.38434e-07 -2.37133e-07 2.74583e-07
0.00135 0 1.38434e-07 -2.37133e-07 2.74583e-07
0.001375 0 1.50078e-07 -2.82764e-07 3.20124e-07
0.001375 0 1.50078e-07 -2.82764e-07 3.20124e-07
0.0014 0 1.62551e-07 -3.36678e-07 3.73865e-07
0.0014 0 1.62551e-07 -3.36678e-07 3.73865e-07
0.001425 0 1.75045e-07 -3.99994e-07 4.36619e-07
0.001425 0 1.75045e-07 -3.99994e-07 4.36619e-07
0.00145 0 1.90246e-07 -4.73906e-07 5.10667e-07
0.00145 0 1.90246e-07 -4.73906e-07 5.10667e-07
0.001475 0 2.04726e-07 -5.59659e-07 5.95928e-07
0.001475 0 2.04726e-07 -5.59659e-07 5.95928e-07
0.0015 0 2.22589e-07 -6.5855e-07 6.9515e-07
0.0015 0 2.22589e-07 -6.5855e-07 6.9515e-07
0.001525 0 2.401e-07 -7.71925e-07 8.08404e-07
0.001525 0 2.401e-07 -7.71925e-07 8.08404e-07
0.00155 0 2.58896e-07 -9.01132e-07 9.37586e-07
0.00155 0 2.58896e-07 -9.01132e-07 9.37586e-07
0.001575 0 2.77912e-07 -1.04747e-06 1.08371e-06
0.001575 0 2.77912e-07 -1.04747e-06 1.08371e-06
0.0016 0 3.00127e-07 -1.21214e-06 1.24874e-06
0.0016 0 3.00127e-07 -1.21214e-06 1.24874e-06
0.001625 0 3.22064e-07 -1.39618e-06 1.43284e-06
0.001625 0 3.22064e-07 -1.39618e-06 1.43284e-06
0.00165 0 3.44931e-07 -1.60048e-06 1.63723e-06
0.00165 0 3.44931e-07 -1.60048e-06 1.63723e-06
0.001675 0 3.70394e-07 -1.82581e-06 1.863e-06
0.001675 0 3.70394e-07 -1.82581e-06 1.863e-06
0.0017 0 3.96185e-07 -2.07281e-06 2.11033e-06
0.0017 0 3.96185e-07 -2.07281e-06 2.11033e-06
0.001725 0 4.21966e-07 -2.34197e-06 2.37968e-06
0.001725 0 4.21966e-07 -2.34197e-06 2.37968e-06
0.00175 0 4.49157e-07 -2.63361e-06 2.67164e-06
0.00175 0 4.49157e-07 -2.63361e-06 2.67164e-06
0.001775 0 4.75741e-07 -2.94796e-06 2.9861e-06
0.001775 0 4.75741e-07 -2.94796e-06 2.9861e-06
0.0018 0 5.04986e-07 -3.28503e-06 3.32362e-06
0.0018 0 5.04986e-07 -3.28503e-06 3.32362e-06
0.001825 0 5.35129e-07 -3.64473e-06 3.6838e-06
0.001825 0 5.35129e-07 -3.64473e-06 3.6838e-06
0.00185 0 5.66849e-07 -4.02675e-06 4.06645e-06
0.00185 0 5.66849e-07 -4.02675e-06 4.06645e-06
0.001875 0 6.01292e-07 -4.43067e-06 4.47129e-06
0.001875 0 6.01292e-07 -4.43067e-06 4.47129e-06
0.0019 0 6.35201e-07 -4.85599e-06 4.89736e-06
0.0019 0 6.35201e-07 -4.85599e-06 4.89736e-06
0.001925 0 6.70345e-07 -5.30211e-06 5.34432e-06
0.001925 0 6.70345e-07 -5.30211e-06 5.34432e-06
0.00195 0 7.07319e-07 -5.76838e-06 5.81158e-06
0.00195 0 7.07319e-07 -5.76838e-06 5.81158e-06
0.001975 0 7.43327e-07 -6.25412e-06 6.29814e-06
0.001975 0 7.43327e-07 -6.25412e-06 6.29814e-06
0.002 0 7.81144e-07 -6.75867e-06 6.80366e-06
0.002 0 7.81144e-07 -6.75867e-06 6.80366e-06
0.002025 0 8.21066e-07 -7.28134e-06 7.32749e-06
0.002025 0 8.21066e-07 -7.28134e-06 7.32749e-06
0.00205 0 8.62236e-07 -7.82147e-06 7.86885e-06
0.00205 0 8.62236e-07 -7.82147e-06 7.86885e-06
0.002075 0 9.04796e-07 -8.37839e-06 8.4271e-06
0.002075 0 9.04796e-07 -8.37839e-06 8.4271e-06
0.0021 0 9.4906e-07 -8.95141e-06 9.00158e-06
0.0021 0 9.4906e-07 -8.95141e-06 9.00158e-06
0.002125 0 9.94827e-07 -9.53989e-06 9.59162e-06
0.002125 0 9.94827e-07 -9.53989e-06 9.59162e-06
0.00215 0 1.04143e-06 -1.01432e-05 1.01965e-05
0.00215 0 1.04143e-06 -1.01432e-05 1.01965e-05
0.002175 0 1.09079e-06 -1.07607e-05 1.08158e-05
0.002175 0 1.09079e-06 -1.07607e-05 1.08158e-05
0.0022 0 1.14213e-06 -1.13919e-05 1.1449e-05
0.0022 0 1.14213e-06 -1.13919e-05 1.1449e-05
0.002225 0 1.19505e-06 -1.20362e-05 1.20954e-05
0.002225 0 1.19505e-06 -1.20362e-05 1.20954e-05
0.00225 0 1.25054e-06 -1.26932e-05 1.27546e-05
0.00225 0 1.25054e-06 -1.26932e-05 1.27546e-05
0.002275 0 1.30746e-06 -1.33623e-05 1.34261e-05
0.002275 0 1.30746e-06 -1.33623e-05 1.34261e-05
0.0023 0 1.3693e-06 -1.40432e-05 1.41098e-05
0.0023 0 1.3693e-06 -1.40432e-05 1.41098e-05
0.002325 0 1.4316e-06 -1.47352e-05 1.48046e-05
0.002325 0 1.4316e-06 -1.47352e-05 1.48046e-05
0.00235 0 1.49396e-06 -1.5438e-05 1.55102e-05
0.00235 0 1.49396e-06 -1.5438e-05 1.55102e-05
0.002375 0 1.56007e-06 -1.61512e-05 1.62264e-05
0.002375 0 1.56007e-06 -1.61512e-05 1.62264e-05
0.0024 0 1.62887e-06 -1.68742e-05 1.69527e-05
0.0024 0 1.62887e-06 -1.68742e-05 1.69527e-05
0.002425 0 1.70093e-06 -1.76068e-05 1.76887e-05
0.002425 0 1.70093e-06 -1.76068e-05 1.76887e-05
0.00245 0 1.77225e-06 -1.83484e-05 1.84338e-05
0.00245 0 1.77225e-06 -1.83484e-05 1.84338e-05
0.002475 0 1.85006e-06 -1.90988e-05 1.91882e-05
0.002475 0 1.85006e-06 -1.90988e-05 1.91882e-05
0.0025 0 1.92823e-06 -1.98575e-05 1.99509e-05
0.0025 0 1.92823e-06 -1.98575e-05 1.99509e-05
0.002525 0 2.01074e-06 -2.06242e-05 2.07219e-05
0.002525 0 2.01074e-06 -2.06242e-05 2.07219e-05
0.00255 0 2.09557e-06 -2.13983e-05 2.15007e-05
0.00255 0 2.09557e-06 -2.13983e-05 2.15007e-05
0.002575 0 2.18511e-06 -2.21797e-05 2.2287e-05
0.002575 0 2.18511e-06 -2.21797e-05 2.2287e-05
0.0026 0 2.27765e-06 -2.29678e-05 2.30804e-05
0.0026 0 2.27765e-06 -2.29678e-05 2.30804e-05
0.002625 0 2.37472e-06 -2.37622e-05 2.38806e-05
0.002625 0 2.37472e-06 -2.37622e-05 2.38806e-05
0.00265 0 2.47469e-06 -2.45628e-05 2.46871e-05
0.00265 0 2.47469e-06 -2.45628e-05 2.46871e-05
0.002675 0 2.57787e-06 -2.5369e-05 2.54997e-05
0.002675 0 2.57787e-06 -2.5369e-05 2.54997e-05
0.0027 0 2.68503e-06 -2.61807e-05 2.6318e-05
0.0027 0 2.68503e-06 -2.61807e-05 2.6318e-05
0.002725 0 2.7978e-06 -2.69975e-05 2.71421e-05
0.002725 0 2.7978e-06 -2.69975e-05 2.71421e-05
0.00275 0 2.91352e-06 -2.78191e-05 2.79712e-05
0.00275 0 2.91352e-06 -2.78191e-05 2.79712e-05
0.002775 0 3.03223e-06 -2.86452e-05 2.88052e-05
0.002775 0 3.03223e-06 -2.86452e-05 2.88052e-05
0.0028 0 3.15637e-06 -2.94753e-05 2.96438e-05
0.0028 0 3.15637e-06 -2.94753e-05 2.96438e-05
0.002825 0 3.28442e-06 -3.03093e-05 3.04867e-05
0.002825 0 3.28442e-06 -3.03093e-05 3.04867e-05
0.00285 0 3.41673e-06 -3.11467e-05 3.13335e-05
0.00285 0 3.41673e-06 -3.11467e-05 3.13335e-05
0.002875 0 3.55394e-06 -3.19873e-05 3.21841e-05
0.002875 0 3.55394e-06 -3.19873e-05 3.21841e-05
0.0029 0 3.69749e-06 -3.28308e-05 3.30383e-05
0.0029 0 3.69749e-06 -3.28308e-05 3.30383e-05
0.002925 0 3.84652e-06 -3.3677e-05 3.38959e-05
0.002925 0 3.84652e-06 -3.3677e-05 3.38959e-05
0.00295 0 3.99984e-06 -3.45257e-05 3.47566e-05
0.00295 0 3.99984e-06 -3.45257e-05 3.47566e-05
0.002975 0 4.16087e-06 -3.53766e-05 3.56204e-05
0.002975 0 4.16087e-06 -3.53766e-05 3.56204e-05
0.003 0 4.32488e-06 -3.62295e-05 3.64867e-05
0.003 0 4.32488e-06 -3.62295e-05 3.64867e-05
0.003025 0 4.49435e-06 -3.70841e-05 3.73554e-05
0.003025 0 4.49435e-06 -3.70841e-05 3.73554e-05
0.00305 0 4.67057e-06 -3.794e-05 3.82265e-05
0.00305 0 4.67057e-06 -3.794e-05 3.82265e-05
0.003075 0 4.85192e-06 -3.87971e-05 3.90993e-05
0.003075 0 4.85192e-06 -3.87971e-05 3.90993e-05
0.0031 0 5.03817e-06 -3.9655e-05 3.99738e-05
0.0031 0 5.03817e-06 -3.9655e-05 3.99738e-05
0.003125 0 5.2322e-06 -4.05136e-05 4.08501e-05
0.003125 0 5.2322e-06 -4.05136e-05 4.08501e-05
0.00315 0 5.43477e-06 -4.13727e-05 4.17282e-05
0.00315 0 5.43477e-06 -4.13727e-05 4.17282e-05
0.003175 0 5.64273e-06 -4.22322e-05 4.26075e-05
0.003175 0 5.64273e-06 -4.22322e-05 4.26075e-05
0.0032 0 5.85819e-06 -4.30917e-05 4.34881e-05
0.0032 0 5.85819e-06 -4.30917e-05 4.34881e-05
0.003225 0 6.0795e-06 -4.39512e-05 4.43696e-05
0.003225 0 6.0795e-06 -4.39512e-05 4.43696e-05
0.00325 0 6.30619e-06 -4.48102e-05 4.52517e-05
0.00325 0 6.30619e-06 -4.48102e-05 4.52517e-05
0.003275 0 6.54158e-06 -4.56686e-05 4.61347e-05
0.003275 0 6.54158e-06 -4.56686e-05 4.61347e-05
0.0033 0 6.78427e-06 -4.65261e-05 4.70181e-05
0.0033 0 6.78427e-06 -4.65261e-05 4.70181e-05
0.003325 0 7.03449e-06 -4.73826e-05 4.79019e-05
0.003325 0 7.03449e-06 -4.73826e-05 4.79019e-05
0.00335 0 7.29248e-06 -4.82379e-05 4.8786e-05
0.00335 0 7.29248e-06 -4.82379e-05 4.8786e-05
0.003375 0 7.55797e-06 -4.90917e-05 4.96701e-05
0.003375 0 7.55797e-06 -4.90917e-05 4.96701e-05
0.0034 0 7.83152e-06 -4.9944e-05 5.05543e-05
0.0034 0 7.83152e-06 -4.9944e-05 5.05543e-05
0.003425 0 8.11341e-06 -5.07944e-05 5.14383e-05
0.003425 0 8.11341e-06 -5.07944e-05 5.14383e-05
0.00345 0 8.40235e-06 -5.16429e-05 5.2322e-05
0.00345 0 8.40235e-06 -5.16429e-05 5.2322e-05
0.003475 0 8.70001e-06 -5.24892e-05 5.32054e-05
0.003475 0 8.70001e-06 -5.24892e-05 5.32054e-05
0.0035 0 9.00759e-06 -5.33332e-05 5.40886e-05
0.0035 0 9.00759e-06 -5.33332e-05 5.40886e-05
0.003525 0 9.32213e-06 -5.41748e-05 5.4971e-05
0.003525 0 9.32213e-06 -5.41748e-05 5.4971e-05
0.00355 0 9.64482e-06 -5.50137e-05 5.58528e-05
0.00355 0 9.64482e-06 -5.50137e-05 5.58528e-05
0.003575 0 9.9749e-06 -5.58499e-05 5.67336e-05
0.003575 0 9.9749e-06 -5.58499e-05 5.67336e-05
0.0036 0 1.03159e-05 -5.6683e-05 5.76141e-05
0.0036 0 1.03159e-05 -5.6683e-05 5.76141e-05
0.003625 0 1.0662e-05 -5.75129e-05 5.84929e-05
0.003625 0 1.0662e-05 -5.75129e-05 5.84929e-05
0.00365 0 1.10165e-05 -5.83396e-05 5.93706e-05
0.00365 0 1.10165e-05 -5.83396e-05 5.93706e-05
0.003675 0 1.13805e-05 -5.91627e-05 6.02473e-05
0.003675 0 1.13805e-05 -5.91627e-05 6.02473e-05
0.0037 0 1.17532e-05 -5.99822e-05 6.11228e-05
0.0037 0 1.17532e-05 -5.99822e-05 6.11228e-05
0.003725 0 1.21344e-05 -6.07979e-05 6.1997e-05
0.003725 0 1.21344e-05 -6.07979e-05 6.1997e-05
0.00375 0 1.25263e-05 -6.16099e-05 6.28704e-05
0.00375 0 1.25263e-05 -6.16099e-05 6.28704e-05
0.003775 0 1.2925e-05 -6.24178e-05 6.37419e-05
0.003775 0 1.2925e-05 -6.24178e-05 6.37419e-05
0.0038 0 1.3333e-05 -6.32216e-05 6.46122e-05
0.0038 0 1.3333e-05 -6.32216e-05 6.46122e-05
0.003825 0 1.37507e-05 -6.40212e-05 6.54813e-05
0.003825 0 1.37507e-05 -6.40212e-05 6.54813e-05
0.00385 0 1.41741e-05 -6.48164e-05 6.63481e-05
0.00385 0 1.41741e-05 -6.48164e-05 6.63481e-05
0.003875 0 1.46077e-05 -6.56069e-05 6.72135e-05
0.003875 0 1.46077e-05 -6.56069e-05 6.72135e-05
0.0039 0 1.50496e-05 -6.63927e-05 6.80771e-05
0.0039 0 1.50496e-05 -6.63927e-05 6.80771e-05
0.003925 0 1.55006e-05 -6.71736e-05 6.89388e-05
0.003925 0 1.55006e-05 -6.71736e-05 6.89388e-05
0.00395 0 1.59619e-05 -6.79493e-05 6.97989e-05
0.00395 0 1.59619e-05 -6.79493e-05 6.97989e-05
0.003975 0 1.64328e-05 -6.87196e-05 7.0657e-05
0.003975 0 1.64328e-05 -6.87196e-05 7.0657e-05
0.004 0 1.69147e-05 -6.94844e-05 7.15135e-05
0.004 0 1.69147e-05 -6.94844e-05 7.15135e-05
0.004025 0 1.74052e-05 -7.02433e-05 7.23675e-05
0.004025 0 1.74052e-05 -7.02433e-05 7.23675e-05
0.00405 0 1.79077e-05 -7.09961e-05 7.32198e-05
0.00405 0 1.79077e-05 -7.09961e-05 7.32198e-05
0.004075 0 1.84219e-05 -7.17424e-05 7.40698e-05
0.004075 0 1.84219e-05 -7.17424e-05 7.40698e-05
0.0041 0 1.89465e-05 -7.24817e-05 7.49171e-05
0.0041 0 1.89465e-05 -7.24817e-05 7.49171e-05
0.004125 0 1.9483e-05 -7.32136e-05 7.57616e-05
0.004125 0 1.9483e-05 -7.32136e-05 7.57616e-05
0.00415 0 2.0032e-05 -7.39377e-05 7.66033e-05
0.00415 0 2.0032e-05 -7.39377e-05 7.66033e-05
0.004175 0 2.05943e-05 -7.46532e-05 7.74418e-05
0.004175 0 2.05943e-05 -7.46532e-05 7.74418e-05
0.0042 0 2.11694e-05 -7.53596e-05 7.82765e-05
0.0042 0 2.11694e-05 -7.53596e-05 7.82765e-05
0.004225 0 2.17592e-05 -7.6056e-05 7.91073e-05
0.004225 0 2.17592e-05 -7.6056e-05 7.91073e-05
0.00425 0 2.23643e-05 -7.67413e-05 7.99336e-05
0.00425 0 2.23643e-05 -7.67413e-05 7.99336e-05
0.004275 0 2.29843e-05 -7.74145e-05 8.07545e-05
0.004275 0 2.29843e-05 -7.74145e-05 8.07545e-05
0.0043 0 2.36219e-05 -7.80745e-05 8.15697e-05
0.0043 0 2.36219e-05 -7.80745e-05 8.15697e-05
0.004325 0 2.42751e-05 -7.87199e-05 8.23778e-05
0.004325 0 2.42751e-05 -7.87199e-05 8.23778e-05
0.00435 0 2.49449e-05 -7.93493e-05 8.31778e-05
0.00435 0 2.49449e-05 -7.93493e-05 8.31778e-05
0.004375 0 2.5634e-05 -7.9961e-05 8.39694e-05
0.004375 0 2.5634e-05 -7.9961e-05 8.39694e-05
0.0044 0 2.63404e-05 -8.05533e-05 8.47506e-05
0.0044 0 2.63404e-05 -8.05533e-05 8.47506e-05
0.004425 0 2.70664e-05 -8.11245e-05 8.55206e-05
0.004425 0 2.70664e-05 -8.11245e-05 8.55206e-05
0.00445 0 2.78134e-05 -8.16725e-05 8.62785e-05
0.00445 0 2.78134e-05 -8.16725e-05 8.62785e-05
0.004475 0 2.85808e-05 -8.21952e-05 8.70225e-05
0.004475 0 2.85808e-05 -8.21952e-05 8.70225e-05
0.0045 0 2.93695e-05 -8.26905e-05 8.77513e-05
0.0045 0 2.93695e-05 -8.26905e-05 8.77513e-05
0.004525 0 3.01803e-05 -8.31562e-05 8.84636e-05
0.004525 0 3.01803e-05 -8.31562e-05 8.84636e-05
0.00455 0 3.10139e-05 -8.359e-05 8.9158e-05
0.00455 0 3.10139e-05 -8.359e-05 8.9158e-05
0.004575 0 3.18696e-05 -8.39897e-05 8.98328e-05
0.004575 0 3.18696e-05 -8.39897e-05 8.98328e-05
0.0046 0 3.27471e-05 -8.43528e-05 9.04863e-05
0.0046 0 3.27471e-05 -8.43528e-05 9.04863e-05
0.004625 0 3.36469e-05 -8.46774e-05 9.11174e-05
0.004625 0 3.36469e-05 -8.46774e-05 9.11174e-05
0.00465 0 3.45699e-05 -8.49612e-05 9.17251e-05
0.00465 0 3.45699e-05 -8.49612e-05 9.17251e-05
0.004675 0 3.55163e-05 -8.52025e-05 9.23085e-05
0.004675 0 3.55163e-05 -8.52025e-05 9.23085e-05
0.0047 0 3.6484e-05 -8.53994e-05 9.28663e-05
0.0047 0 3.6484e-05 -8.53994e-05 9.28663e-05
0.004725 0 3.74735e-05 -8.55505e-05 9.33978e-05
0.004725 0 3.74735e-05 -8.55505e-05 9.33978e-05
0.00475 0 3.84842e-05 -8.56543e-05 9.39025e-05
0.00475 0 3.84842e-05 -8.56543e-05 9.39025e-05
0.004775 0 3.95165e-05 -8.57096e-05 9.43805e-05
0.004775 0 3.95165e-05 -8.57096e-05 9.43805e-05
0.0048 0 4.05688e-05 -8.57155e-05 9.48313e-05
0.0048 0 4.05688e-05 -8.57155e-05 9.48313e-05
0.004825 0 4.16402e-05 -8.56712e-05 9.52548e-05
0.004825 0 4.16402e-05 -8.56712e-05 9.52548e-05
0.00485 0 4.27304e-05 -8.55762e-05 9.56513e-05
0.00485 0 4.27304e-05 -8.55762e-05 9.56513e-05
0.004875 0 4.3838e-05 -8.54301e-05 9.60212e-05
0.004875 0 4.3838e-05 -8.54301e-05 9.60212e-05
0.0049 0 4.49615e-05 -8.52329e-05 9.63648e-05
0.0049 0 4.49615e-05 -8.52329e-05 9.63648e-05
0.004925 0 4.60998e-05 -8.49847e-05 9.66829e-05
0.004925 0 4.60998e-05 -8.49847e-05 9.66829e-05
0.00495 0 4.72514e-05 -8.46858e-05 9.69761e-05
0.00495 0 4.72514e-05 -8.46858e-05 9.69761e-05
0.004975 0 4.84161e-05 -8.43366e-05 9.7246e-05
0.004975 0 4.84161e-05 -8.43366e-05 9.7246e-05
0.005 0 4.95899e-05 -8.39378e-05 9.74921e-05
0.005 0 4.95899e-05 -8.39378e-05 9.74921e-05
0.005025 0 5.07723e-05 -8.349e-05 9.77159e-05
0.005025 0 5.07723e-05 -8.349e-05 9.77159e-05
0.00505 0 5.19608e-05 -8.2994e-05 9.7918e-05
0.00505 0 5.19608e-05 -8.2994e-05 9.7918e-05
0.005075 0 5.31552e-05 -8.24507e-05 9.81e-05
0.005075 0 5.31552e-05 -8.24507e-05 9.81e-05
0.0051 0 5.43532e-05 -8.18613e-05 9.82626e-05
0.0051 0 5.43532e-05 -8.18613e-05 9.82626e-05
0.005125 0 5.55528e-05 -8.12267e-05 9.84068e-05
0.005125 0 5.55528e-05 -8.12267e-05 9.84068e-05
0.00515 0 5.67519e-05 -8.05483e-05 9.85332e-05
0.00515 0 5.67519e-05 -8.05483e-05 9.85332e-05
0.005175 0 5.79492e-05 -7.98271e-05 9.86432e-05
0.005175 0 5.79492e-05 -7.98271e-05 9.86432e-05
0.0052 0 5.91432e-05 -7.90645e-05 9.87376e-05
0.0052 0 5.91432e-05 -7.90645e-05 9.87376e-05
0.005225 0 6.0334e-05 -7.82618e-05 9.88185e-05
0.005225 0 6.0334e-05 -7.82618e-05 9.88185e-05
0.00525 0 6.1518e-05 -7.74203e-05 9.88856e-05
0.00525 0 6.1518e-05 -7.74203e-05 9.88856e-05
0.005275 0 6.26944e-05 -7.65415e-05 9.89403e-05
0.005275 0 6.26944e-05 -7.65415e-05 9.89403e-05
0.0053 0 6.38616e-05 -7.56267e-05 9.89834e-05
0.0053 0 6.38616e-05 -7.56267e-05 9.89834e-05
0.005325 0 6.50192e-05 -7.46775e-05 9.90163e-05
0.005325 0 6.50192e-05 -7.46775e-05 9.90163e-05
0.00535 0 6.61658e-05 -7.36954e-05 9.904e-05
0.00535 0 6.61658e-05 -7.36954e-05 9.904e-05
0.005375 0 6.73016e-05 -7.26817e-05 9.90562e-05
0.005375 0 6.73016e-05 -7.26817e-05 9.90562e-05
0.0054 0 6.84249e-05 -7.1638e-05 9.90655e-05
0.0054 0 6.84249e-05 -7.1638e-05 9.90655e-05
0.005425 0 6.95364e-05 -7.0566e-05 9.907e-05
0.005425 0 6.95364e-05 -7.0566e-05 9.907e-05
0.00545 0 7.06354e-05 -6.9467e-05 9.90708e-05
0.00545 0 7.06354e-05 -6.9467e-05 9.90708e-05
0.005475 0 7.17218e-05 -6.83426e-05 9.90693e-05
0.005475 0 7.17218e-05 -6.83426e-05 9.90693e-05
0.0055 0 7.2796e-05 -6.71943e-05 9.90673e-05
0.0055 0 7.2796e-05 -6.71943e-05 9.90673e-05
0.005525 0 7.38583e-05 -6.60234e-05 9.90663e-05
0.005525 0 7.38583e-05 -6.60234e-05 9.90663e-05
0.00555 0 7.49079e-05 -6.48314e-05 9.90671e-05
0.00555 0 7.49079e-05 -6.48314e-05 9.90671e-05
0.005575 0 7.59461e-05 -6.36195e-05 9.90719e-05
0.005575 0 7.59461e-05 -6.36195e-05 9.90719e-05
0.0056 0 7.69752e-05 -6.23891e-05 9.90837e-05
0.0056 0 7.69752e-05 -6.23891e-05 9.90837e-05
0.005625 0 7.79942e-05 -6.11415e-05 9.91029e-05
0.005625 0 7.79942e-05 -6.11415e-05 9.91029e-05
0.00565 0 7.90055e-05 -5.98779e-05 9.91324e-05
0.00565 0 7.90055e-05 -5.98779e-05 9.91324e-05
0.005675 0 8.00104e-05 -5.85994e-05 9.91743e-05
0.005675 0 8.00104e-05 -5.85994e-05 9.91743e-05
0.0057 0 8.10092e-05 -5.7307e-05 9.92299e-05
0.0057 0 8.10092e-05 -5.7307e-05 9.92299e-05
0.005725 0 8.20039e-05 -5.60016e-05 9.93016e-05
0.005725 0 8.20039e-05 -5.60016e-05 9.93016e-05
0.00575 0 8.2996e-05 -5.46842e-05 9.93916e-05
0.00575 0 8.2996e-05 -5.46842e-05 9.93916e-05
0.005775 0 8.39855e-05 -5.33556e-05 9.95006e-05
0.005775 0 8.39855e-05 -5.33556e-05 9.95006e-05
0.0058 0 8.49762e-05 -5.20163e-05 9.96326e-05
0.0058 0 8.49762e-05 -5.20163e-05 9.96326e-05
0.005825 0 8.59685e-05 -5.06672e-05 9.97885e-05
0.005825 0 8.59685e-05 -5.06672e-05 9.97885e-05
0.00585 0 8.69634e-05 -4.93085e-05 9.99699e-05
0.00585 0 8.69634e-05 -4.93085e-05 9.99699e-05
0.005875 0 8.79628e-05 -4.79409e-05 0.000100179
0.005875 0 8.79628e-05 -4.79409e-05 0.000100179
0.0059 0 8.89681e-05 -4.65646e-05 0.000100417
0.0059 0 8.89681e-05 -4.65646e-05 0.000100417
0.005925 0 8.99804e-05 -4.51799e-05 0.000100686
0.005925 0 8.99804e-05 -4.51799e-05 0.000100686
0.00595 0 9.10016e-05 -4.3787e-05 0.000100988
0.00595 0 9.10016e-05 -4.3787e-05 0.000100988
0.005975 0 9.2033e-05 -4.2386e-05 0.000101324
0.005975 0 9.2033e-05 -4.2386e-05 0.000101324
0.006 0 9.30749e-05 -4.09769e-05 0.000101696
0.006 0 9.30749e-05 -4.09769e-05 0.000101696
0.006025 0 9.41287e-05 -3.95596e-05 0.000102104
0.006025 0 9.41287e-05 -3.95596e-05 0.000102104
0.00605 0 9.51949e-05 -3.81341e-05 0.000102549
0.00605 0 9.51949e-05 -3.81341e-05 0.000102549
0.006075 0 9.62747e-05 -3.67002e-05 0.000103033
0.006075 0 9.62747e-05 -3.67002e-05 0.000103033
0.0061 0 9.73678e-05 -3.52576e-05 0.000103555
0.0061 0 9.73678e-05 -3.52576e-05 0.000103555
0.006125 0 9.8476e-05 -3.3806e-05 0.000104117
0.006125 0 9.8476e-05 -3.3806e-05 0.000104117
0.00615 0 9.95979e-05 -3.23453e-05 0.000104718
0.00615 0 9.95979e-05 -3.23453e-05 0.000104718
0.006175 0 0.000100734 -3.08749e-05 0.000105359
0.006175 0 0.000100734 -3.08749e-05 0.000105359
0.0062 0 0.000101884 -2.93946e-05 0.00010604
0.0062 0 0.000101884 -2.93946e-05 0.00010604
0.006225 0 0.000103048 -2.79039e-05 0.00010676
0.006225 0 0.000103048 -2.79039e-05 0.00010676
0.00625 0 0.000104226 -2.64025e-05 0.000107518
0.00625 0 0.000104226 -2.64025e-05 0.000107518
0.006275 0 0.000105415 -2.489e-05 0.000108314
0.006275 0 0.000105415 -2.489e-05 0.000108314
0.0063 0 0.000106617 -2.33659e-05 0.000109147
0.0063 0 0.000106617 -2.33659e-05 0.000109147
0.006325 0 0.000107828 -2.18298e-05 0.000110015
0.006325 0 0.000107828 -2.18298e-05 0.000110015
0.00635 0 0.000109049 -2.02813e-05 0.000110919
0.00635 0 0.000109049 -2.02813e-05 0.000110919
0.006375 0 0.000110277 -1.87201e-05 0.000111854
0.006375 0 0.000110277 -1.87201e-05 0.000111854
0.0064 0 0.000111511 -1.71459e-05 0.000112821
0.0064 0 0.000111511 -1.71459e-05 0.000112821
0.006425 0 0.000112749 -1.55582e-05 0.000113817
0.006425 0 0.000112749 -1.55582e-05 0.000113817
0.00645 0 0.000113989 -1.39569e-05 0.000114841
0.00645 0 0.000113989 -1.39569e-05 0.000114841
0.006475 0 0.00011523 -1.23416e-05 0.000115889
0.006475 0 0.00011523 -1.23416e-05 0.000115889
0.0065 0 0.000116469 -1.07121e-05 0.00011696
0.0065 0 0.000116469 -1.07121e-05 0.00011696
0.006525 0 0.000117703 -9.06838e-06 0.000118052
0.006525 0 0.000117703 -9.06838e-06 0.000118052
0.00655 0 0.000118931 -7.41022e-06 0.000119162
0.00655 0 0.000118931 -7.41022e-06 0.000119162
0.006575 0 0.00012015 -5.73758e-06 0.000120287
0.006575 0 0.00012015 -5.73758e-06 0.000120287
0.0066 0 0.000121358 -4.05046e-06 0.000121426
0.0066 0 0.000121358 -4.05046e-06 0.000121426
0.006625 0 0.000122552 -2.34888e-06 0.000122574
0.006625 0 0.000122552 -2.34888e-06 0.000122574
0.00665 0 0.000123728 -6.32963e-07 0.00012373
0.00665 0 0.000123728 -6.32963e-07 0.00012373
0.006675 0 0.000124886 1.09713e-06 0.000124891
0.006675 0 0.000124886 1.09713e-06 0.000124891
0.0067 0 0.000126021 2.84118e-06 0.000126053
0.0067 0 0.000126021 2.84118e-06 0.000126053
0.006725 0 0.000127132 4.59888e-06 0.000127215
0.006725 0 0.000127132 4.59888e-06 0.000127215
0.00675 0 0.000128215 6.36988e-06 0.000128374
0.00675 0 0.000128215 6.36988e-06 0.000128374
0.006775 0 0.000129268 8.15378e-06 0.000129525
0.006775 0 0.000129268 8.15378e-06 0.000129525
0.0068 0 0.000130288 9.95011e-06 0.000130667
0.0068 0 0.000130288 9.95011e-06 0.000130667
0.006825 0 0.000131272 1.17583e-05 0.000131798
0.006825 0 0.000131272 1.17583e-05 0.000131798
0.00685 0 0.000132219 1.35778e-05 0.000132914
0.00685 0 0.000132219 1.35778e-05 0.000132914
0.006875 0 0.000133125 1.54079e-05 0.000134013
0.006875 0 0.000133125 1.54079e-05 0.000134013
0.0069 0 0.000133986 1.72479e-05 0.000135092
0.0069 0 0.000133986 1.72479e-05 0.000135092
0.006925 0 0.000134803 1.90969e-05 0.000136149
0.006925 0 0.000134803 1.90969e-05 0.000136149
0.00695 0 0.000135571 2.09541e-05 0.000137181
0.00695 0 0.000135571 2.09541e-05 0.000137181
0.006975 0 0.000136288 2.28186e-05 0.000138185
0.006975 0 0.000136288 2.28186e-05 0.000138185
0.007 0 0.000136954 2.46894e-05 0.000139161
0.007 0 0.000136954 2.46894e-05 0.000139161
0.007025 0 0.000137562 2.65655e-05 0.000140104
0.007025 0 0.000137562 2.65655e-05 0.000140104
0.00705 0 0.000138114 2.84455e-05 0.000141013
0.00705 0 0.000138114 2.84455e-05 0.000141013
0.007075 0 0.000138606 3.03285e-05 0.000141885
0.007075 0 0.000138606 3.03285e-05 0.000141885
0.0071 0 0.000139038 3.22129e-05 0.000142721
0.0071 0 0.000139038 3.22129e-05 0.000142721
0.007125 0 0.000139406 3.40975e-05 0.000143515
0.007125 0 0.000139406 3.40975e-05 0.000143515
0.00715 0 0.000139707 3.59809e-05 0.000144266
0.00715 0 0.000139707 3.59809e-05 0.000144266
0.007175 0 0.000139942 3.78616e-05 0.000144973
0.007175 0 0.000139942 3.78616e-05 0.000144973
0.0072 0 0.000140109 3.97382e-05 0.000145636
0.0072 0 0.000140109 3.97382e-05 0.000145636
0.007225 0 0.000140206 4.16089e-05 0.00014625
0.007225 0 0.000140206 4.16089e-05 0.00014625
0.00725 0 0.000140232 4.34721e-05 0.000146816
0.00725 0 0.000140232 4.34721e-05 0.000146816
0.007275 0 0.000140185 4.53261e-05 0.00014733
0.007275 0 0.000140185 4.53261e-05 0.00014733
0.0073 0 0.000140065 4.71691e-05 0.000147794
0.0073 0 0.000140065 4.71691e-05 0.000147794
0.007325 0 0.000139869 4.89991e-05 0.000148204
0.007325 0 0.000139869 4.89991e-05 0.000148204
0.00735 0 0.000139598 5.08143e-05 0.000148559
0.00735 0 0.000139598 5.08143e-05 0.000148559
0.007375 0 0.000139251 5.26129e-05 0.000148859
0.007375 0 0.000139251 5.26129e-05 0.000148859
0.0074 0 0.000138827 5.43928e-05 0.000149102
0.0074 0 0.000138827 5.43928e-05 0.000149102
0.007425 0 0.000138326 5.61521e-05 0.000149289
0.007425 0 0.000138326 5.61521e-05 0.000149289
0.00745 0 0.000137748 5.78887e-05 0.000149417
0.00745 0 0.000137748 5.78887e-05 0.000149417
0.007475 0 0.000137092 5.96006e-05 0.000149488
0.007475 0 0.000137092 5.96006e-05 0.000149488
0.0075 0 0.000136359 6.12856e-05 0.000149498
0.0075 0 0.000136359 6.12856e-05 0.000149498
0.007525 0 0.000135547 6.2942e-05 0.000149448
0.007525 0 0.000135547 6.2942e-05 0.000149448
0.00755 0 0.00013466 6.45676e-05 0.000149339
0.00755 0 0.00013466 6.45676e-05 0.000149339
0.007575 0 0.000133696 6.61605e-05 0.00014917
0.007575 0 0.000133696 6.61605e-05 0.00014917
0.0076 0 0.000132656 6.77187e-05 0.000148941
0.0076 0 0.000132656 6.77187e-05 0.000148941
0.007625 0 0.000131541 6.92403e-05 0.000148651
0.007625 0 0.000131541 6.92403e-05 0.000148651
0.00765 0 0.000130352 7.07234e-05 0.000148301
0.00765 0 0.000130352 7.07234e-05 0.000148301
0.007675 0 0.00012909 7.21662e-05 0.000147892
0.007675 0 0.00012909 7.21662e-05 0.000147892
0.0077 0 0.000127757 7.35668e-05 0.000147425
0.0077 0 0.000127757 7.35668e-05 0.000147425
0.007725 0 0.000126355 7.49234e-05 0.000146898
0.007725 0 0.000126355 7.49234e-05 0.000146898
0.00775 0 0.000124884 7.62345e-05 0.000146314
0.00775 0 0.000124884 7.62345e-05 0.000146314
0.007775 0 0.000123346 7.74985e-05 0.000145672
0.007775 0 0.000123346 7.74985e-05 0.000145672
0.0078 0 0.000121742 7.87141e-05 0.000144973
0.0078 0 0.000121742 7.87141e-05 0.000144973
0.007825 0 0.00012008 7.98801e-05 0.000144222
0.007825 0 0.00012008 7.98801e-05 0.000144222
0.00785 0 0.000118356 8.09953e-05 0.000143417
0.00785 0 0.000118356 8.09953e-05 0.000143417
0.007875 0 0.000116578 8.20588e-05 0.000142562
0.007875 0 0.000116578 8.20588e-05 0.000142562
0.0079 0 0.00011474 8.30696e-05 0.000141654
0.0079 0 0.00011474 8.30696e-05 0.000141654
0.007925 0 0.000112852 8.40268e-05 0.000140698
0.007925 0 0.000112852 8.40268e-05 0.000140698
0.00795 0 0.000110915 8.49299e-05 0.000139697
0.00795 0 0.000110915 8.49299e-05 0.000139697
0.007975 0 0.000108932 8.57783e-05 0.000138651
0.007975 0 0.000108932 8.57783e-05 0.000138651
0.008 0 0.000106906 8.65716e-05 0.000137563
0.008 0 0.000106906 8.65716e-05 0.000137563
0.008025 0 0.000104839 8.73096e-05 0.000136434