# Moment      
# CofR        : (5.000000e-01 1.000000e-01 0.000000e+00)
#
# Time        	(total_x total_y total_z)	(pressure_x pressure_y pressure_z)	(viscous_x viscous_y viscous_z)
0.0001        	(-2.053648e-05 1.950046e-05 -4.237223e-03)	(-1.835137e-05 8.278342e-06 -4.237531e-03)	(-2.185115e-06 1.122212e-05 3.081464e-07)
0.0002        	(-2.740993e-05 2.032605e-05 -5.342888e-03)	(-2.301467e-05 -2.246994e-06 -5.343360e-03)	(-4.395262e-06 2.257305e-05 4.719359e-07)
0.0003        	(-3.102619e-05 1.381502e-05 -6.085245e-03)	(-2.440804e-05 -2.017503e-05 -6.085829e-03)	(-6.618154e-06 3.399005e-05 5.845470e-07)
0.0004        	(-3.645998e-05 7.015024e-06 -6.968116e-03)	(-2.757690e-05 -3.860850e-05 -6.968766e-03)	(-8.883074e-06 4.562353e-05 6.495634e-07)
0.0005        	(-4.364640e-05 1.197198e-06 -7.976872e-03)	(-3.244124e-05 -5.635406e-05 -7.977547e-03)	(-1.120516e-05 5.755125e-05 6.748571e-07)
0.0006        	(-5.322667e-05 -2.141164e-06 -9.078923e-03)	(-3.964756e-05 -7.188720e-05 -9.079592e-03)	(-1.357911e-05 6.974604e-05 6.689489e-07)
0.0007        	(-6.494246e-05 -2.593310e-06 -1.024191e-02)	(-4.894886e-05 -8.474309e-05 -1.024255e-02)	(-1.599361e-05 8.214978e-05 6.403038e-07)
0.0008        	(-7.918904e-05 8.460915e-07 -1.146381e-02)	(-6.074180e-05 -9.390916e-05 -1.146440e-02)	(-1.844724e-05 9.475525e-05 5.969480e-07)
0.0009        	(-9.580022e-05 8.438583e-06 -1.273673e-02)	(-7.487309e-05 -9.905773e-05 -1.273728e-02)	(-2.092713e-05 1.074963e-04 5.454534e-07)
0.001         	(-1.151219e-04 2.071864e-05 -1.405562e-02)	(-9.168911e-05 -9.965182e-05 -1.405611e-02)	(-2.343279e-05 1.203705e-04 4.914394e-07)
0.0011        	(-1.371029e-04 3.755010e-05 -1.541452e-02)	(-1.111511e-04 -9.576387e-05 -1.541496e-02)	(-2.595181e-05 1.333140e-04 4.387852e-07)
0.0012        	(-1.613915e-04 5.877258e-05 -1.680753e-02)	(-1.329064e-04 -8.755888e-05 -1.680792e-02)	(-2.848510e-05 1.463315e-04 3.905935e-07)
0.0013        	(-1.886486e-04 8.468728e-05 -1.823782e-02)	(-1.576306e-04 -7.466017e-05 -1.823817e-02)	(-3.101796e-05 1.593475e-04 3.483448e-07)
0.0014        	(-2.185191e-04 1.150578e-04 -1.969441e-02)	(-1.849612e-04 -5.734248e-05 -1.969472e-02)	(-3.355789e-05 1.724003e-04 3.135146e-07)
0.0015        	(-2.512233e-04 1.497835e-04 -2.117681e-02)	(-2.151397e-04 -3.559722e-05 -2.117710e-02)	(-3.608361e-05 1.853808e-04 2.860256e-07)
0.0016        	(-2.858999e-04 1.879714e-04 -2.267285e-02)	(-2.472903e-04 -1.039143e-05 -2.267311e-02)	(-3.860956e-05 1.983628e-04 2.661881e-07)
0.0017        	(-3.238112e-04 2.306476e-04 -2.418764e-02)	(-2.826892e-04 1.937159e-05 -2.418790e-02)	(-4.112202e-05 2.112760e-04 2.532859e-07)
0.0018        	(-3.644672e-04 2.772320e-04 -2.572153e-02)	(-3.208507e-04 5.313514e-05 -2.572177e-02)	(-4.361647e-05 2.240968e-04 2.466174e-07)
0.0019        	(-4.067155e-04 3.264212e-04 -2.725557e-02)	(-3.606187e-04 8.957559e-05 -2.725581e-02)	(-4.609685e-05 2.368456e-04 2.454734e-07)
0.002         	(-4.523762e-04 3.798074e-04 -2.880240e-02)	(-4.038201e-04 1.303214e-04 -2.880265e-02)	(-4.855608e-05 2.494860e-04 2.487738e-07)
0.0021        	(-4.991921e-04 4.349972e-04 -3.033447e-02)	(-4.482022e-04 1.730015e-04 -3.033473e-02)	(-5.098990e-05 2.619957e-04 2.554219e-07)
0.0022        	(-5.496409e-04 4.944006e-04 -3.189230e-02)	(-4.962651e-04 2.201409e-04 -3.189257e-02)	(-5.337586e-05 2.742596e-04 2.643897e-07)
0.0023        	(-6.011747e-04 5.552184e-04 -3.343018e-02)	(-5.454396e-04 2.688319e-04 -3.343046e-02)	(-5.573514e-05 2.863864e-04 2.753738e-07)
0.0024        	(-6.547817e-04 6.184771e-04 -3.496015e-02)	(-5.967239e-04 3.201524e-04 -3.496044e-02)	(-5.805775e-05 2.983247e-04 2.873365e-07)
0.0025        	(-7.122864e-04 6.857738e-04 -3.652369e-02)	(-6.519730e-04 3.758548e-04 -3.652399e-02)	(-6.031342e-05 3.099190e-04 2.993444e-07)
0.0026        	(-7.704640e-04 7.537312e-04 -3.805102e-02)	(-7.079403e-04 4.324516e-04 -3.805134e-02)	(-6.252362e-05 3.212796e-04 3.113246e-07)
0.0027        	(-8.299965e-04 8.229331e-04 -3.957491e-02)	(-7.653423e-04 4.907021e-04 -3.957524e-02)	(-6.465421e-05 3.322311e-04 3.227880e-07)
0.0028        	(-8.921174e-04 8.945007e-04 -4.109542e-02)	(-8.254247e-04 5.517911e-04 -4.109575e-02)	(-6.669275e-05 3.427096e-04 3.332052e-07)
0.0029        	(-9.548160e-04 9.665173e-04 -4.260400e-02)	(-8.861530e-04 6.136800e-04 -4.260435e-02)	(-6.866301e-05 3.528373e-04 3.427856e-07)
0.003         	(-1.020496e-03 1.041022e-03 -4.411518e-02)	(-9.499788e-04 6.786533e-04 -4.411553e-02)	(-7.051720e-05 3.623686e-04 3.508731e-07)
0.0031        	(-1.112808e-03 1.339550e-03 -4.134002e-02)	(-1.042776e-03 9.796703e-04 -4.134030e-02)	(-7.003157e-05 3.598801e-04 2.806401e-07)
0.0032        	(-1.176711e-03 1.432712e-03 -4.168195e-02)	(-1.107316e-03 1.076100e-03 -4.168226e-02)	(-6.939455e-05 3.566121e-04 3.020796e-07)
0.0033        	(-1.238708e-03 1.502413e-03 -4.240481e-02)	(-1.170068e-03 1.149678e-03 -4.240513e-02)	(-6.863920e-05 3.527349e-04 3.194103e-07)
0.0034        	(-1.300031e-03 1.569142e-03 -4.297564e-02)	(-1.232312e-03 1.221133e-03 -4.297597e-02)	(-6.771880e-05 3.480088e-04 3.299397e-07)
0.0035        	(-1.360730e-03 1.633833e-03 -4.341357e-02)	(-1.294080e-03 1.291312e-03 -4.341390e-02)	(-6.665032e-05 3.425211e-04 3.317826e-07)
0.0036        	(-1.417069e-03 1.690944e-03 -4.372393e-02)	(-1.351648e-03 1.354741e-03 -4.372425e-02)	(-6.542033e-05 3.362031e-04 3.238561e-07)
0.0037        	(-1.473713e-03 1.746006e-03 -4.398255e-02)	(-1.409666e-03 1.416860e-03 -4.398285e-02)	(-6.404662e-05 3.291463e-04 3.068635e-07)
0.0038        	(-1.529382e-03 1.797925e-03 -4.419207e-02)	(-1.466829e-03 1.476454e-03 -4.419235e-02)	(-6.255261e-05 3.214711e-04 2.817409e-07)
0.0039        	(-1.582813e-03 1.846179e-03 -4.431556e-02)	(-1.521870e-03 1.532980e-03 -4.431581e-02)	(-6.094250e-05 3.131992e-04 2.503193e-07)
0.004         	(-1.635333e-03 1.891965e-03 -4.440888e-02)	(-1.576090e-03 1.587499e-03 -4.440910e-02)	(-5.924271e-05 3.044664e-04 2.147487e-07)
0.0041        	(-1.685693e-03 1.935025e-03 -4.444383e-02)	(-1.628245e-03 1.639783e-03 -4.444401e-02)	(-5.744725e-05 2.952418e-04 1.767598e-07)
0.0042        	(-1.735416e-03 1.976680e-03 -4.444733e-02)	(-1.679828e-03 1.690991e-03 -4.444747e-02)	(-5.558787e-05 2.856887e-04 1.389439e-07)
0.0043        	(-1.783619e-03 2.016448e-03 -4.441772e-02)	(-1.729945e-03 1.740591e-03 -4.441783e-02)	(-5.367427e-05 2.758570e-04 1.029001e-07)
0.0044        	(-1.830916e-03 2.055180e-03 -4.434932e-02)	(-1.779197e-03 1.789371e-03 -4.434939e-02)	(-5.171865e-05 2.658092e-04 6.979475e-08)
0.0045        	(-1.877616e-03 2.093404e-03 -4.428284e-02)	(-1.827882e-03 1.837794e-03 -4.428288e-02)	(-4.973343e-05 2.556093e-04 4.037611e-08)
