# Time Dx Dy Dz magD
5e-05 0 9.59274e-11 -5.63672e-12 9.60929e-11
0.0001 0 3.12186e-10 -2.54564e-11 3.13222e-10
0.00015 0 6.52671e-10 -6.67938e-11 6.5608e-10
0.0002 0 1.11371e-09 -1.33184e-10 1.12165e-09
0.00025 0 1.70251e-09 -2.2709e-10 1.71758e-09
0.0003 0 2.44142e-09 -3.54899e-10 2.46708e-09
0.00035 0 3.36243e-09 -5.30256e-10 3.40398e-09
0.0004 0 4.50133e-09 -7.75043e-10 4.56757e-09
0.00045 0 5.89625e-09 -1.12004e-09 6.00168e-09
0.0005 0 7.58944e-09 -1.60761e-09 7.75783e-09
0.00055 0 9.6296e-09 -2.29747e-09 9.89988e-09
0.0006 0 1.20739e-08 -3.27576e-09 1.25104e-08
0.00065 0 1.49889e-08 -4.66801e-09 1.5699e-08
0.0007 0 1.84526e-08 -6.65774e-09 1.96169e-08
0.00075 0 2.25546e-08 -9.51347e-09 2.44789e-08
0.0008 0 2.7399e-08 -1.36273e-08 3.06008e-08
0.00085 0 3.31081e-08 -1.95681e-08 3.84586e-08
0.0009 0 3.9825e-08 -2.81518e-08 4.87704e-08
0.00095 0 4.77169e-08 -4.05278e-08 6.26052e-08
0.001 0 5.69784e-08 -5.82798e-08 8.1505e-08
0.00105 0 6.78321e-08 -8.35336e-08 1.07606e-07
0.0011 0 8.0529e-08 -1.19061e-07 1.43737e-07
0.00115 0 9.53453e-08 -1.68364e-07 1.93487e-07
0.0012 0 1.12577e-07 -2.35726e-07 2.61229e-07
0.00125 0 1.32532e-07 -3.26211e-07 3.52106e-07
0.0013 0 1.55519e-07 -4.45594e-07 4.71954e-07
0.00135 0 1.81836e-07 -6.00226e-07 6.27165e-07
0.0014 0 2.1176e-07 -7.96829e-07 8.24487e-07
0.00145 0 2.45537e-07 -1.04224e-06 1.07077e-06
0.0015 0 2.83378e-07 -1.34309e-06 1.37266e-06
0.00155 0 3.25457e-07 -1.70553e-06 1.73631e-06
0.0016 0 3.71919e-07 -2.13494e-06 2.1671e-06
0.00165 0 4.22883e-07 -2.63567e-06 2.66938e-06
0.0017 0 4.78463e-07 -3.21089e-06 3.24634e-06
0.00175 0 5.38779e-07 -3.86249e-06 3.89989e-06
0.0018 0 6.03975e-07 -4.59109e-06 4.63065e-06
0.00185 0 6.74233e-07 -5.39613e-06 5.43808e-06
0.0019 0 7.49785e-07 -6.27594e-06 6.32057e-06
0.00195 0 8.30921e-07 -7.22801e-06 7.27562e-06
0.002 0 9.17998e-07 -8.24913e-06 8.30005e-06
0.00205 0 1.01144e-06 -9.33559e-06 9.39022e-06
0.0021 0 1.11172e-06 -1.04834e-05 1.05422e-05
0.00215 0 1.21939e-06 -1.16884e-05 1.17519e-05
0.0022 0 1.33504e-06 -1.29465e-05 1.30152e-05
0.00225 0 1.45933e-06 -1.42536e-05 1.43281e-05
0.0023 0 1.59295e-06 -1.56058e-05 1.56869e-05
0.00235 0 1.73662e-06 -1.69992e-05 1.70877e-05
0.0024 0 1.89114e-06 -1.84304e-05 1.85272e-05
0.00245 0 2.0573e-06 -1.9896e-05 2.00021e-05
0.0025 0 2.23596e-06 -2.13928e-05 2.15093e-05
0.00255 0 2.428e-06 -2.29178e-05 2.3046e-05
0.0026 0 2.63434e-06 -2.4468e-05 2.46094e-05
0.00265 0 2.85594e-06 -2.60409e-05 2.6197e-05
0.0027 0 3.09378e-06 -2.76338e-05 2.78065e-05
0.00275 0 3.34888e-06 -2.92443e-05 2.94354e-05
0.0028 0 3.62229e-06 -3.087e-05 3.10818e-05
0.00285 0 3.91509e-06 -3.25087e-05 3.27436e-05
0.0029 0 4.22836e-06 -3.41582e-05 3.44189e-05
0.00295 0 4.56322e-06 -3.58164e-05 3.61059e-05
0.003 0 4.92077e-06 -3.74814e-05 3.7803e-05
0.00305 0 5.30211e-06 -3.91513e-05 3.95087e-05
0.0031 0 5.70829e-06 -4.08243e-05 4.12214e-05
0.00315 0 6.1404e-06 -4.24985e-05 4.29398e-05
0.0032 0 6.5995e-06 -4.41723e-05 4.46625e-05
0.00325 0 7.08666e-06 -4.5844e-05 4.63885e-05
0.0033 0 7.60293e-06 -4.75121e-05 4.81166e-05
0.00335 0 8.14933e-06 -4.9175e-05 4.98457e-05
0.0034 0 8.72687e-06 -5.08311e-05 5.15748e-05
0.00345 0 9.33656e-06 -5.24791e-05 5.33032e-05
0.0035 0 9.97942e-06 -5.41173e-05 5.50297e-05
0.00355 0 1.06565e-05 -5.57443e-05 5.67537e-05
0.0036 0 1.13689e-05 -5.73585e-05 5.84743e-05
0.00365 0 1.21178e-05 -5.89583e-05 6.01907e-05
0.0037 0 1.29044e-05 -6.05419e-05 6.19019e-05
0.00375 0 1.37301e-05 -6.21075e-05 6.3607e-05
0.0038 0 1.45963e-05 -6.3653e-05 6.53051e-05
0.00385 0 1.55048e-05 -6.5176e-05 6.69948e-05
0.0039 0 1.64572e-05 -6.66738e-05 6.86749e-05
0.00395 0 1.74555e-05 -6.81433e-05 7.03435e-05
0.004 0 1.85017e-05 -6.95809e-05 7.19987e-05
0.00405 0 1.95979e-05 -7.09821e-05 7.36379e-05
0.0041 0 2.07464e-05 -7.23418e-05 7.52579e-05
0.00415 0 2.19494e-05 -7.36541e-05 7.6855e-05
0.0042 0 2.3209e-05 -7.49119e-05 7.84248e-05
0.00425 0 2.45273e-05 -7.61073e-05 7.99619e-05
0.0043 0 2.59063e-05 -7.72314e-05 8.14605e-05
0.00435 0 2.73476e-05 -7.82742e-05 8.29141e-05
0.0044 0 2.88525e-05 -7.92253e-05 8.43156e-05
0.00445 0 3.0422e-05 -8.00737e-05 8.5658e-05
0.0045 0 3.20566e-05 -8.0808e-05 8.69342e-05
0.00455 0 3.3756e-05 -8.14174e-05 8.81378e-05
0.0046 0 3.55195e-05 -8.18915e-05 8.92629e-05
0.00465 0 3.7346e-05 -8.22208e-05 9.03049e-05
0.0047 0 3.92332e-05 -8.23971e-05 9.12608e-05
0.00475 0 4.11784e-05 -8.24138e-05 9.21287e-05
0.0048 0 4.31782e-05 -8.2266e-05 9.29088e-05
0.00485 0 4.52287e-05 -8.19503e-05 9.36028e-05
0.0049 0 4.7325e-05 -8.14656e-05 9.42141e-05
0.00495 0 4.94622e-05 -8.08121e-05 9.47476e-05
0.005 0 5.16347e-05 -7.99919e-05 9.52095e-05
0.00505 0 5.38369e-05 -7.90081e-05 9.5607e-05
0.0051 0 5.60628e-05 -7.78655e-05 9.59483e-05
0.00515 0 5.83067e-05 -7.65696e-05 9.62422e-05
0.0052 0 6.05631e-05 -7.51268e-05 9.64983e-05
0.00525 0 6.28268e-05 -7.35441e-05 9.67261e-05
0.0053 0 6.50931e-05 -7.1829e-05 9.69356e-05
0.00535 0 6.73581e-05 -6.99892e-05 9.7137e-05
0.0054 0 6.96183e-05 -6.80327e-05 9.73404e-05
0.00545 0 7.18712e-05 -6.59674e-05 9.7556e-05
0.0055 0 7.41151e-05 -6.38009e-05 9.77937e-05
0.00555 0 7.63489e-05 -6.1541e-05 9.80635e-05
0.0056 0 7.85725e-05 -5.91947e-05 9.8375e-05
0.00565 0 8.07861e-05 -5.6769e-05 9.87376e-05
0.0057 0 8.29908e-05 -5.42701e-05 9.91601e-05
0.00575 0 8.51879e-05 -5.17039e-05 9.96508e-05
0.0058 0 8.7379e-05 -4.90754e-05 0.000100217
0.00585 0 8.95655e-05 -4.63892e-05 0.000100866
0.0059 0 9.1749e-05 -4.36492e-05 0.000101603
0.00595 0 9.39306e-05 -4.08585e-05 0.000102432
0.006 0 9.61107e-05 -3.80198e-05 0.000103358
0.00605 0 9.82892e-05 -3.51351e-05 0.00010438
0.0061 0 0.000100465 -3.22059e-05 0.000105501
0.00615 0 0.000102636 -2.92332e-05 0.000106718
0.0062 0 0.000104799 -2.62177e-05 0.000108029
0.00625 0 0.00010695 -2.31599e-05 0.000109428
0.0063 0 0.000109082 -2.006e-05 0.000110911
0.00635 0 0.000111188 -1.69183e-05 0.000112468
0.0064 0 0.000113262 -1.3735e-05 0.000114091
0.00645 0 0.000115292 -1.05107e-05 0.00011577
0.0065 0 0.000117268 -7.24609e-06 0.000117492
0.00655 0 0.000119179 -3.94235e-06 0.000119244
0.0066 0 0.000121013 -6.01121e-07 0.000121014
0.00665 0 0.000122755 2.77539e-06 0.000122786
0.0067 0 0.000124393 6.18433e-06 0.000124547
0.00675 0 0.000125913 9.62217e-06 0.00012628
0.0068 0 0.0001273 1.30846e-05 0.00012797
0.00685 0 0.00012854 1.65666e-05 0.000129603
0.0069 0 0.00012962 2.00622e-05 0.000131163
0.00695 0 0.000130527 2.35649e-05 0.000132637
0.007 0 0.000131247 2.70672e-05 0.000134009
0.00705 0 0.00013177 3.0561e-05 0.000135268
0.0071 0 0.000132085 3.40373e-05 0.0001364
0.00715 0 0.000132181 3.74867e-05 0.000137394
0.0072 0 0.000132051 4.08992e-05 0.00013824
0.00725 0 0.000131688 4.42641e-05 0.000138928
0.0073 0 0.000131087 4.75705e-05 0.000139452
0.00735 0 0.000130244 5.08075e-05 0.000139803
0.0074 0 0.000129156 5.39636e-05 0.000139976
0.00745 0 0.000127824 5.70276e-05 0.000139969
0.0075 0 0.00012625 5.99883e-05 0.000139777
0.00755 0 0.000124436 6.28351e-05 0.0001394
0.0076 0 0.000122387 6.55574e-05 0.000138839
0.00765 0 0.00012011 6.81454e-05 0.000138095
0.0077 0 0.000117614 7.059e-05 0.000137172
0.00775 0 0.000114908 7.28827e-05 0.000136073
0.0078 0 0.000112004 7.50163e-05 0.000134805
0.00785 0 0.000108915 7.69842e-05 0.000133375
0.0079 0 0.000105653 7.87811e-05 0.000131792
0.00795 0 0.000102235 8.04028e-05 0.000130064
0.008 0 9.86761e-05 8.18463e-05 0.000128202
0.00805 0 9.49924e-05 8.31098e-05 0.000126217
0.0081 0 9.12007e-05 8.41925e-05 0.000124121
0.00815 0 8.73183e-05 8.5095e-05 0.000121925
0.0082 0 8.33622e-05 8.5819e-05 0.000119642
0.00825 0 7.93492e-05 8.6367e-05 0.000117284
0.0083 0 7.52958e-05 8.67428e-05 0.000114864
0.00835 0 7.12179e-05 8.69509e-05 0.000112394
0.0084 0 6.71306e-05 8.69965e-05 0.000109886
0.00845 0 6.30483e-05 8.68859e-05 0.000107351
0.0085 0 5.89841e-05 8.66254e-05 0.0001048
0.00855 0 5.49501e-05 8.62222e-05 0.000102244
0.0086 0 5.09572e-05 8.56835e-05 9.9691e-05
0.00865 0 4.70148e-05 8.5017e-05 9.71508e-05
0.0087 0 4.31314e-05 8.42303e-05 9.46312e-05
0.00875 0 3.9314e-05 8.3331e-05 9.21393e-05
0.0088 0 3.55682e-05 8.23268e-05 8.96816e-05
0.00885 0 3.18987e-05 8.12249e-05 8.7264e-05
0.0089 0 2.83088e-05 8.00326e-05 8.48917e-05
0.00895 0 2.48011e-05 7.87565e-05 8.25693e-05
0.009 0 2.1377e-05 7.74032e-05 8.03009e-05
0.00905 0 1.80373e-05 7.59786e-05 7.80903e-05
0.0091 0 1.4782e-05 7.44884e-05 7.5941e-05
0.00915 0 1.16108e-05 7.29376e-05 7.3856e-05
0.0092 0 8.52292e-06 7.1331e-05 7.18384e-05
0.00925 0 5.5173e-06 6.96729e-05 6.9891e-05
0.0093 0 2.59286e-06 6.79672e-05 6.80166e-05
0.00935 0 -2.51498e-07 6.62173e-05 6.62178e-05
0.0094 0 -3.01673e-06 6.44265e-05 6.44971e-05
0.00945 0 -5.70358e-06 6.25978e-05 6.28571e-05
0.0095 0 -8.31246e-06 6.07337e-05 6.12999e-05
0.00955 0 -1.08435e-05 5.88368e-05 5.98276e-05
0.0096 0 -1.32962e-05 5.69095e-05 5.84421e-05
0.00965 0 -1.56699e-05 5.49541e-05 5.71445e-05
0.0097 0 -1.79632e-05 5.29729e-05 5.59358e-05
0.00975 0 -2.01745e-05 5.09684e-05 5.4816e-05
0.0098 0 -2.23016e-05 4.89429e-05 5.37844e-05
0.00985 0 -2.43418e-05 4.68989e-05 5.28397e-05
0.0099 0 -2.62922e-05 4.48393e-05 5.19792e-05
0.00995 0 -2.81494e-05 4.27669e-05 5.11996e-05
0.01 0 -2.99099e-05 4.06848e-05 5.04961e-05
0.01005 0 -3.15699e-05 3.85963e-05 4.98631e-05
0.0101 0 -3.31253e-05 3.6505e-05 4.9294e-05
0.01015 0 -3.45723e-05 3.44147e-05 4.87813e-05
0.0102 0 -3.59068e-05 3.23293e-05 4.83164e-05
0.01025 0 -3.71249e-05 3.0253e-05 4.78905e-05
0.0103 0 -3.82229e-05 2.81901e-05 4.74939e-05
0.01035 0 -3.91974e-05 2.61451e-05 4.71169e-05
0.0104 0 -4.00452e-05 2.41226e-05 4.67495e-05
0.01045 0 -4.07635e-05 2.21272e-05 4.63819e-05
0.0105 0 -4.13502e-05 2.01636e-05 4.60044e-05
0.01055 0 -4.18034e-05 1.82363e-05 4.5608e-05
0.0106 0 -4.21221e-05 1.635e-05 4.5184e-05
0.01065 0 -4.23057e-05 1.4509e-05 4.47245e-05
0.0107 0 -4.23544e-05 1.27177e-05 4.42225e-05
0.01075 0 -4.2269e-05 1.09799e-05 4.36718e-05
0.0108 0 -4.20512e-05 9.29956e-06 4.30672e-05
0.01085 0 -4.17033e-05 7.68008e-06 4.24046e-05
0.0109 0 -4.12285e-05 6.12457e-06 4.16809e-05
0.01095 0 -4.06306e-05 4.63578e-06 4.08942e-05
0.011 0 -3.99142e-05 3.21605e-06 4.00436e-05
0.01105 0 -3.90847e-05 1.86729e-06 3.91293e-05
0.0111 0 -3.81482e-05 5.90963e-07 3.81527e-05
0.01115 0 -3.71112e-05 -6.11914e-07 3.71163e-05
0.0112 0 -3.59812e-05 -1.74079e-06 3.60233e-05
0.01125 0 -3.47661e-05 -2.79558e-06 3.48783e-05
0.0113 0 -3.34742e-05 -3.77666e-06 3.36866e-05
0.01135 0 -3.21144e-05 -4.68484e-06 3.24544e-05
0.0114 0 -3.0696e-05 -5.52139e-06 3.11886e-05
0.01145 0 -2.92284e-05 -6.28797e-06 2.98972e-05
0.0115 0 -2.77215e-05 -6.98666e-06 2.85884e-05
0.01155 0 -2.61853e-05 -7.6199e-06 2.72715e-05
0.0116 0 -2.46297e-05 -8.19048e-06 2.59559e-05
0.01165 0 -2.30648e-05 -8.70152e-06 2.46516e-05
0.0117 0 -2.15007e-05 -9.15641e-06 2.33692e-05
0.01175 0 -1.99471e-05 -9.55882e-06 2.21192e-05
0.0118 0 -1.84137e-05 -9.91263e-06 2.09123e-05
0.01185 0 -1.69098e-05 -1.02219e-05 1.97593e-05
0.0119 0 -1.54445e-05 -1.04909e-05 1.86706e-05
0.01195 0 -1.40263e-05 -1.07241e-05 1.76563e-05
0.012 0 -1.26635e-05 -1.09258e-05 1.67254e-05
0.01205 0 -1.13636e-05 -1.11008e-05 1.58858e-05
0.0121 0 -1.01337e-05 -1.12535e-05 1.51438e-05
0.01215 0 -8.98034e-06 -1.13887e-05 1.45034e-05
0.0122 0 -7.90939e-06 -1.1511e-05 1.39664e-05
0.01225 0 -6.92609e-06 -1.1625e-05 1.35319e-05
0.0123 0 -6.035e-06 -1.17353e-05 1.31962e-05
0.01235 0 -5.24002e-06 -1.18465e-05 1.29536e-05
0.0124 0 -4.54437e-06 -1.19629e-05 1.2797e-05
0.01245 0 -3.95061e-06 -1.2089e-05 1.27181e-05
0.0125 0 -3.46058e-06 -1.22289e-05 1.27091e-05
0.01255 0 -3.07551e-06 -1.23867e-05 1.27628e-05
0.0126 0 -2.79594e-06 -1.25664e-05 1.28737e-05
0.01265 0 -2.62183e-06 -1.27717e-05 1.3038e-05
0.0127 0 -2.5525e-06 -1.30063e-05 1.32544e-05
0.01275 0 -2.58674e-06 -1.32735e-05 1.35232e-05
0.0128 0 -2.72278e-06 -1.35766e-05 1.3847e-05
0.01285 0 -2.95836e-06 -1.39186e-05 1.42295e-05
0.0129 0 -3.29076e-06 -1.43022e-05 1.46759e-05
0.01295 0 -3.71682e-06 -1.47299e-05 1.51916e-05
0.013 0 -4.23301e-06 -1.52041e-05 1.57824e-05
0.01305 0 -4.83546e-06 -1.57267e-05 1.64533e-05
0.0131 0 -5.51999e-06 -1.62995e-05 1.72088e-05
0.01315 0 -6.28217e-06 -1.69239e-05 1.80523e-05
0.0132 0 -7.11736e-06 -1.76011e-05 1.89857e-05
0.01325 0 -8.02072e-06 -1.83321e-05 2.00099e-05
0.0133 0 -8.98731e-06 -1.91172e-05 2.11244e-05
0.01335 0 -1.00121e-05 -1.99569e-05 2.23275e-05
0.0134 0 -1.10899e-05 -2.08509e-05 2.36166e-05
0.01345 0 -1.22156e-05 -2.17989e-05 2.49883e-05
0.0135 0 -1.33842e-05 -2.28002e-05 2.64384e-05
0.01355 0 -1.45905e-05 -2.38537e-05 2.79621e-05
0.0136 0 -1.58296e-05 -2.49579e-05 2.95546e-05
0.01365 0 -1.70965e-05 -2.61112e-05 3.12103e-05
0.0137 0 -1.83866e-05 -2.73113e-05 3.29238e-05
0.01375 0 -1.96952e-05 -2.85561e-05 3.46893e-05
0.0138 0 -2.10179e-05 -2.98426e-05 3.65011e-05
0.01385 0 -2.23505e-05 -3.11679e-05 3.83534e-05
0.0139 0 -2.36891e-05 -3.25286e-05 4.02403e-05
0.01395 0 -2.50298e-05 -3.39212e-05 4.21561e-05
0.014 0 -2.63691e-05 -3.53417e-05 4.40949e-05
0.01405 0 -2.77038e-05 -3.67859e-05 4.60511e-05
0.0141 0 -2.90308e-05 -3.82496e-05 4.8019e-05
0.01415 0 -3.03474e-05 -3.97281e-05 4.99929e-05
0.0142 0 -3.16512e-05 -4.12167e-05 5.19674e-05
0.01425 0 -3.29398e-05 -4.27103e-05 5.39371e-05
0.0143 0 -3.42115e-05 -4.4204e-05 5.58965e-05
0.01435 0 -3.54644e-05 -4.56925e-05 5.78405e-05
0.0144 0 -3.66972e-05 -4.71705e-05 5.97641e-05
0.01445 0 -3.79087e-05 -4.86327e-05 6.16621e-05
0.0145 0 -3.9098e-05 -5.00737e-05 6.35298e-05
0.01455 0 -4.02644e-05 -5.14881e-05 6.53625e-05
0.0146 0 -4.14075e-05 -5.28705e-05 6.71556e-05
0.01465 0 -4.25269e-05 -5.42157e-05 6.89048e-05
0.0147 0 -4.36227e-05 -5.55182e-05 7.0606e-05
0.01475 0 -4.46949e-05 -5.67729e-05 7.22551e-05
0.0148 0 -4.57439e-05 -5.79748e-05 7.38484e-05
0.01485 0 -4.67701e-05 -5.91189e-05 7.53823e-05
0.0149 0 -4.7774e-05 -6.02004e-05 7.68534e-05
0.01495 0 -4.87565e-05 -6.12147e-05 7.82587e-05
0.015 0 -4.97182e-05 -6.21573e-05 7.95954e-05
0.01505 0 -5.06601e-05 -6.3024e-05 8.08608e-05
0.0151 0 -5.15832e-05 -6.38106e-05 8.20526e-05
0.01515 0 -5.24885e-05 -6.45134e-05 8.31687e-05
0.0152 0 -5.3377e-05 -6.51288e-05 8.42073e-05
0.01525 0 -5.425e-05 -6.56532e-05 8.51669e-05
0.0153 0 -5.51084e-05 -6.60837e-05 8.60464e-05
0.01535 0 -5.59534e-05 -6.64171e-05 8.68448e-05
0.0154 0 -5.67861e-05 -6.66509e-05 8.75615e-05
0.01545 0 -5.76076e-05 -6.67826e-05 8.81961e-05
0.0155 0 -5.84189e-05 -6.681e-05 8.87488e-05
0.01555 0 -5.92211e-05 -6.67311e-05 8.92199e-05
0.0156 0 -6.0015e-05 -6.65442e-05 8.96099e-05
0.01565 0 -6.08016e-05 -6.62478e-05 8.992e-05
0.0157 0 -6.15816e-05 -6.58407e-05 9.01515e-05
0.01575 0 -6.23557e-05 -6.53218e-05 9.0306e-05
0.0158 0 -6.31246e-05 -6.46904e-05 9.03856e-05
0.01585 0 -6.38888e-05 -6.39459e-05 9.03928e-05
0.0159 0 -6.46487e-05 -6.30881e-05 9.03303e-05
0.01595 0 -6.54046e-05 -6.21168e-05 9.02012e-05
0.016 0 -6.61566e-05 -6.10323e-05 9.00091e-05
0.01605 0 -6.69049e-05 -5.98349e-05 8.97579e-05
0.0161 0 -6.76494e-05 -5.85254e-05 8.9452e-05
0.01615 0 -6.83898e-05 -5.71045e-05 8.9096e-05
0.0162 0 -6.91259e-05 -5.55734e-05 8.8695e-05
0.01625 0 -6.98572e-05 -5.39335e-05 8.82545e-05
0.0163 0 -7.05831e-05 -5.21863e-05 8.77803e-05
0.01635 0 -7.13029e-05 -5.03337e-05 8.72788e-05
0.0164 0 -7.20156e-05 -4.83778e-05 8.67564e-05
0.01645 0 -7.27203e-05 -4.6321e-05 8.62199e-05
0.0165 0 -7.34159e-05 -4.41657e-05 8.56767e-05
0.01655 0 -7.41009e-05 -4.19149e-05 8.51341e-05
0.0166 0 -7.47742e-05 -3.95716e-05 8.45996e-05
0.01665 0 -7.54341e-05 -3.71391e-05 8.4081e-05
0.0167 0 -7.60789e-05 -3.4621e-05 8.3586e-05
0.01675 0 -7.6707e-05 -3.20212e-05 8.31223e-05
0.0168 0 -7.73164e-05 -2.93436e-05 8.26975e-05
0.01685 0 -7.79053e-05 -2.65926e-05 8.23189e-05
0.0169 0 -7.84715e-05 -2.37726e-05 8.19933e-05
0.01695 0 -7.90129e-05 -2.08883e-05 8.17274e-05
0.017 0 -7.95274e-05 -1.79448e-05 8.15268e-05
0.01705 0 -8.00127e-05 -1.49472e-05 8.13969e-05
0.0171 0 -8.04665e-05 -1.19006e-05 8.13418e-05
0.01715 0 -8.08865e-05 -8.81079e-06 8.1365e-05
0.0172 0 -8.12703e-05 -5.68324e-06 8.14688e-05
0.01725 0 -8.16157e-05 -2.5238e-06 8.16547e-05
0.0173 0 -8.19201e-05 6.6163e-07 8.19228e-05
0.01735 0 -8.21813e-05 3.86701e-06 8.22722e-05
0.0174 0 -8.2397e-05 7.08623e-06 8.27011e-05
0.01745 0 -8.25648e-05 1.03131e-05 8.32064e-05
0.0175 0 -8.26826e-05 1.35414e-05 8.37841e-05
0.01755 0 -8.27481e-05 1.67649e-05 8.44293e-05
0.0176 0 -8.27593e-05 1.99772e-05 8.51363e-05
0.01765 0 -8.2714e-05 2.31722e-05 8.58985e-05
0.0177 0 -8.26104e-05 2.63436e-05 8.67091e-05
0.01775 0 -8.24465e-05 2.94852e-05 8.75603e-05
0.0178 0 -8.22206e-05 3.2591e-05 8.84443e-05
0.01785 0 -8.1931e-05 3.56549e-05 8.9353e-05
0.0179 0 -8.1576e-05 3.8671e-05 9.02778e-05
0.01795 0 -8.11541e-05 4.16336e-05 9.12105e-05
0.018 0 -8.06641e-05 4.45369e-05 9.21425e-05
0.01805 0 -8.01045e-05 4.73756e-05 9.30655e-05
0.0181 0 -7.94743e-05 5.01443e-05 9.39713e-05
0.01815 0 -7.87723e-05 5.28378e-05 9.4852e-05
0.0182 0 -7.79976e-05 5.54511e-05 9.56998e-05
0.01825 0 -7.71492e-05 5.79796e-05 9.65072e-05
0.0183 0 -7.62265e-05 6.04186e-05 9.72671e-05
0.01835 0 -7.52288e-05 6.27638e-05 9.79728e-05
0.0184 0 -7.41556e-05 6.50111e-05 9.86179e-05
0.01845 0 -7.30064e-05 6.71564e-05 9.91963e-05
0.0185 0 -7.17809e-05 6.91962e-05 9.97026e-05
0.01855 0 -7.04788e-05 7.11268e-05 0.000100131
0.0186 0 -6.91001e-05 7.29452e-05 0.000100478
0.01865 0 -6.76449e-05 7.46481e-05 0.000100738
0.0187 0 -6.61132e-05 7.62328e-05 0.000100908
0.01875 0 -6.45053e-05 7.76966e-05 0.000100984
0.0188 0 -6.28217e-05 7.90373e-05 0.000100963
0.01885 0 -6.10629e-05 8.02526e-05 0.000100842
0.0189 0 -5.92297e-05 8.13406e-05 0.00010062
0.01895 0 -5.73229e-05 8.22996e-05 0.000100295
0.019 0 -5.53437e-05 8.31281e-05 9.9866e-05
0.01905 0 -5.32933e-05 8.38249e-05 9.93317e-05
0.0191 0 -5.11731e-05 8.43889e-05 9.86923e-05
0.01915 0 -4.89848e-05 8.48193e-05 9.7948e-05
0.0192 0 -4.67302e-05 8.51155e-05 9.70998e-05
0.01925 0 -4.44116e-05 8.52773e-05 9.61489e-05
0.0193 0 -4.20313e-05 8.53044e-05 9.50972e-05
0.01935 0 -3.95918e-05 8.51972e-05 9.39472e-05
0.0194 0 -3.7096e-05 8.49559e-05 9.27018e-05
0.01945 0 -3.4547e-05 8.45813e-05 9.13646e-05
0.0195 0 -3.19481e-05 8.40743e-05 8.99398e-05
0.01955 0 -2.93029e-05 8.3436e-05 8.84321e-05
0.0196 0 -2.66153e-05 8.2668e-05 8.68469e-05
0.01965 0 -2.38895e-05 8.1772e-05 8.51902e-05
0.0197 0 -2.11296e-05 8.07501e-05 8.34688e-05
0.01975 0 -1.83405e-05 7.96044e-05 8.16899e-05
0.0198 0 -1.55267e-05 7.83377e-05 7.98616e-05
0.01985 0 -1.26934e-05 7.69529e-05 7.79927e-05
0.0199 0 -9.84574e-06 7.5453e-05 7.60927e-05
0.01995 0 -6.98907e-06 7.38417e-05 7.41717e-05
0.02 0 -4.12891e-06 7.21226e-05 7.22407e-05
