# Time forceX forceY forceZ normalForce
0 0 0 0 0
5e-05 0.0135454 0.0135454 1.17753e-05 -0.0212647
0.0001 0.0139983 0.0139983 2.32052e-05 -0.0219812
0.00015 0.0133778 0.0133778 3.46352e-05 -0.0210079
0.0002 0.0134736 0.0134736 4.57878e-05 -0.0211586
0.00025 0.0143642 0.0143642 5.68528e-05 -0.0225573
0.0003 0.0156077 0.0156077 6.81244e-05 -0.02451
0.00035 0.016878 0.016878 7.97187e-05 -0.0265047
0.0004 0.0181156 0.0181156 9.15785e-05 -0.0284482
0.00045 0.0193792 0.0193792 0.000103599 -0.0304325
0.0005 0.0207106 0.0207106 0.000115713 -0.0325232
0.00055 0.0221043 0.0221043 0.000127907 -0.0347118
0.0006 0.0235346 0.0235346 0.000140192 -0.036958
0.00065 0.0249825 0.0249825 0.000152583 -0.0392317
0.0007 0.0264444 0.0264444 0.000165088 -0.0415274
0.00075 0.0279251 0.0279251 0.000177703 -0.0438526
0.0008 0.0294325 0.0294325 0.000190416 -0.0462196
0.00085 0.0309719 0.0309719 0.000203215 -0.0486369
0.0009 0.0325452 0.0325452 0.000216082 -0.0511075
0.00095 0.0341515 0.0341515 0.000229005 -0.0536298
0.001 0.0357884 0.0357884 0.000241969 -0.0562002
0.00105 0.0374532 0.0374532 0.000254966 -0.0588145
0.0011 0.0391434 0.0391434 0.000267985 -0.0614686
0.00115 0.0408568 0.0408567 0.000281017 -0.0641591
0.0012 0.0425912 0.0425912 0.000294057 -0.0668826
0.00125 0.0443448 0.0443448 0.000307097 -0.0696363
0.0013 0.0461158 0.0461158 0.000320131 -0.0724174
0.00135 0.0479025 0.0479025 0.000333154 -0.075223
0.0014 0.0497032 0.0497031 0.00034616 -0.0780505
0.00145 0.0515162 0.0515162 0.000359145 -0.0808975
0.0015 0.0533401 0.0533401 0.000372104 -0.0837616
0.00155 0.0551736 0.0551736 0.000385034 -0.0866408
0.0016 0.0570156 0.0570156 0.00039793 -0.0895333
0.00165 0.058865 0.058865 0.000410789 -0.0924373
0.0017 0.0607207 0.0607207 0.000423608 -0.0953514
0.00175 0.062582 0.062582 0.000436383 -0.0982742
0.0018 0.064448 0.064448 0.000449113 -0.101204
0.00185 0.0663178 0.0663178 0.000461793 -0.104141
0.0019 0.0681907 0.0681907 0.000474421 -0.107082
0.00195 0.070066 0.070066 0.000486994 -0.110026
0.002 0.0719429 0.0719429 0.000499509 -0.112974
0.00205 0.0738207 0.0738207 0.000511964 -0.115922
0.0021 0.0756989 0.0756989 0.000524354 -0.118872
0.00215 0.0775768 0.0775768 0.000536677 -0.121821
0.0022 0.0794538 0.0794538 0.000548928 -0.124768
0.00225 0.0813294 0.0813294 0.000561102 -0.127713
0.0023 0.0832032 0.0832032 0.000573194 -0.130656
0.00235 0.0850746 0.0850746 0.000585195 -0.133595
0.0024 0.0869433 0.0869433 0.000597098 -0.136529
0.00245 0.0888088 0.0888087 0.000608892 -0.139458
0.0025 0.0906706 0.0906706 0.000620567 -0.142382
0.00255 0.0925286 0.0925286 0.000632109 -0.1453
0.0026 0.0943822 0.0943822 0.000643503 -0.14821
0.00265 0.0962313 0.0962313 0.000654732 -0.151114
0.0027 0.0980754 0.0980754 0.000665779 -0.15401
0.00275 0.0999143 0.0999143 0.000676624 -0.156897
0.0028 0.101748 0.101748 0.000687247 -0.159777
0.00285 0.103576 0.103576 0.000697628 -0.162647
0.0029 0.105398 0.105398 0.000707745 -0.165508
0.00295 0.107214 0.107214 0.000717578 -0.16836
0.003 0.109024 0.109024 0.000727109 -0.171203
0.00305 0.106905 0.106905 0.000730833 -0.167876
0.0031 0.103035 0.103035 0.000728707 -0.161798
0.00315 0.10248 0.10248 0.000726172 -0.160927
0.0032 0.103388 0.103388 0.000723303 -0.162351
0.00325 0.104552 0.104552 0.000720144 -0.16418
0.0033 0.105524 0.105524 0.000716561 -0.165705
0.00335 0.106278 0.106278 0.000712404 -0.166891
0.0034 0.106902 0.106902 0.000707628 -0.167869
0.00345 0.107444 0.107444 0.00070228 -0.168721
0.0035 0.107917 0.107917 0.000696439 -0.169464
0.00355 0.108326 0.108326 0.000690158 -0.170106
0.0036 0.108684 0.108684 0.000683465 -0.170668
0.00365 0.109005 0.109005 0.000676366 -0.171173
0.0037 0.109301 0.109301 0.000668866 -0.171638
0.00375 0.109573 0.109573 0.000660978 -0.172064
0.0038 0.109816 0.109816 0.000652723 -0.172446
0.00385 0.110027 0.110027 0.000644127 -0.172778
0.0039 0.110203 0.110203 0.000635222 -0.173054
0.00395 0.110342 0.110342 0.00062604 -0.173273
0.004 0.110447 0.110447 0.00061661 -0.173437
0.00405 0.110519 0.110519 0.000606961 -0.17355
0.0041 0.11056 0.11056 0.00059712 -0.173615
0.00415 0.110575 0.110575 0.000587109 -0.173638
0.0042 0.110563 0.110563 0.000576952 -0.17362
0.00425 0.110529 0.110529 0.000566669 -0.173566
0.0043 0.110474 0.110474 0.000556279 -0.173479
0.00435 0.110399 0.110399 0.0005458 -0.173361
0.0044 0.110306 0.110306 0.00053525 -0.173216
0.00445 0.110198 0.110199 0.000524643 -0.173047
0.0045 0.110077 0.110077 0.000513993 -0.172856
0.00455 0.109943 0.109943 0.000503315 -0.172646
0.0046 0.109799 0.109799 0.00049262 -0.17242
0.00465 0.109645 0.109645 0.00048192 -0.172179
0.0047 0.109484 0.109484 0.000471226 -0.171925
0.00475 0.109315 0.109315 0.00046055 -0.171659
0.0048 0.109139 0.109139 0.000449901 -0.171384
0.00485 0.108959 0.108959 0.00043929 -0.171101
0.0049 0.108774 0.108774 0.000428726 -0.17081
0.00495 0.108585 0.108585 0.00041822 -0.170514
0.005 0.108393 0.108393 0.000407782 -0.170213
0.00505 0.108199 0.108199 0.000397421 -0.169908
0.0051 0.108003 0.108003 0.000387149 -0.1696
0.00515 0.107806 0.107806 0.000376977 -0.16929
0.0052 0.107608 0.107608 0.000366916 -0.168979
0.00525 0.10741 0.10741 0.000356979 -0.168668
0.0053 0.107211 0.107211 0.000347181 -0.168356
0.00535 0.107013 0.107013 0.000337537 -0.168045
0.0054 0.106815 0.106815 0.000328064 -0.167734
0.00545 0.106619 0.106619 0.00031878 -0.167425
0.0055 0.106423 0.106423 0.000309706 -0.167117
0.00555 0.106228 0.106228 0.000300865 -0.166812
0.0056 0.106034 0.106034 0.00029228 -0.166508
0.00565 0.105842 0.105842 0.000283979 -0.166206
0.0057 0.105652 0.105652 0.00027599 -0.165907
0.00575 0.105463 0.105463 0.000268342 -0.16561
0.0058 0.105276 0.105276 0.000261066 -0.165316
0.00585 0.10509 0.10509 0.000254193 -0.165024
0.0059 0.104906 0.104906 0.000247756 -0.164736
0.00595 0.104724 0.104724 0.000241785 -0.164449
0.006 0.104543 0.104543 0.000236311 -0.164165
0.00605 0.104364 0.104364 0.000231362 -0.163884
0.0061 0.104186 0.104186 0.000226963 -0.163604
0.00615 0.104009 0.104009 0.000223138 -0.163326
0.0062 0.103833 0.103833 0.000219906 -0.16305
0.00625 0.103657 0.103657 0.000217282 -0.162774
0.0063 0.103482 0.103482 0.000215276 -0.1625
0.00635 0.103307 0.103307 0.000213895 -0.162225
0.0064 0.103131 0.103131 0.000213141 -0.161949
0.00645 0.102955 0.102955 0.000213009 -0.161672
0.0065 0.102778 0.102778 0.000213493 -0.161394
0.00655 0.102599 0.102599 0.000214581 -0.161113
0.0066 0.102418 0.102418 0.000216256 -0.160829
0.00665 0.102235 0.102235 0.0002185 -0.160542
0.0067 0.102049 0.102049 0.000221291 -0.16025
0.00675 0.10186 0.10186 0.000224606 -0.159953
0.0068 0.101668 0.101668 0.000228417 -0.159651
0.00685 0.101471 0.101471 0.000232697 -0.159342
0.0069 0.101271 0.101271 0.000237419 -0.159027
0.00695 0.101065 0.101065 0.000242552 -0.158704
0.007 0.100854 0.100854 0.000248069 -0.158373
0.00705 0.100637 0.100637 0.00025394 -0.158033
0.0071 0.100415 0.100415 0.000260137 -0.157683
0.00715 0.100186 0.100186 0.000266632 -0.157323
0.0072 0.0999494 0.0999494 0.000273397 -0.156952
0.00725 0.0997057 0.0997057 0.000280407 -0.15657
0.0073 0.0994541 0.0994541 0.000287637 -0.156175
0.00735 0.0991941 0.0991941 0.000295062 -0.155766
0.0074 0.0989252 0.0989252 0.00030266 -0.155344
0.00745 0.098647 0.098647 0.000310408 -0.154907
0.0075 0.0983589 0.0983589 0.000318285 -0.154455
0.00755 0.0980604 0.0980604 0.000326273 -0.153986
0.0076 0.0977511 0.0977511 0.000334351 -0.153501
0.00765 0.0974305 0.0974305 0.000342502 -0.152997
0.0077 0.0970979 0.0970979 0.000350709 -0.152475
0.00775 0.096753 0.096753 0.000358956 -0.151933
0.0078 0.0963951 0.0963951 0.000367226 -0.151371
0.00785 0.0960238 0.0960238 0.000375506 -0.150788
0.0079 0.0956384 0.0956385 0.000383779 -0.150183
0.00795 0.0952386 0.0952386 0.000392032 -0.149555
0.008 0.0948235 0.0948235 0.000400251 -0.148903
0.00805 0.0943928 0.0943928 0.000408422 -0.148227
0.0081 0.0939458 0.0939458 0.000416531 -0.147525
0.00815 0.0934819 0.0934819 0.000424563 -0.146797
0.0082 0.0930005 0.0930005 0.000432506 -0.146041
0.00825 0.092501 0.092501 0.000440344 -0.145256
0.0083 0.0919828 0.0919828 0.000448063 -0.144443
0.00835 0.0914453 0.0914453 0.000455647 -0.143599
0.0084 0.0908878 0.0908878 0.000463081 -0.142723
0.00845 0.0903097 0.0903097 0.000470349 -0.141815
0.0085 0.0897105 0.0897105 0.000477434 -0.140874
0.00855 0.0890895 0.0890895 0.000484319 -0.139899
0.0086 0.0884461 0.0884461 0.000490986 -0.138889
0.00865 0.0877797 0.0877797 0.000497419 -0.137842
0.0087 0.0870897 0.0870897 0.000503599 -0.136759
0.00875 0.0863755 0.0863755 0.000509508 -0.135637
0.0088 0.0856365 0.0856365 0.000515129 -0.134477
0.00885 0.0848721 0.0848721 0.000520445 -0.133276
0.0089 0.0840817 0.0840817 0.000525438 -0.132035
0.00895 0.0832647 0.0832647 0.000530093 -0.130752
0.009 0.0824206 0.0824206 0.000534394 -0.129427
0.00905 0.0815486 0.0815486 0.000538328 -0.128057
0.0091 0.0806482 0.0806482 0.000541882 -0.126643
0.00915 0.0797188 0.0797188 0.000545046 -0.125184
0.0092 0.0787597 0.0787597 0.00054781 -0.123678
0.00925 0.0777703 0.0777703 0.000550168 -0.122124
0.0093 0.07675 0.07675 0.000552113 -0.120522
0.00935 0.0756982 0.0756982 0.000553645 -0.11887
0.0094 0.0746141 0.0746141 0.000554761 -0.117168
0.00945 0.0734971 0.0734971 0.000555465 -0.115414
0.0095 0.0723466 0.0723466 0.000555759 -0.113607
0.00955 0.071162 0.071162 0.00055565 -0.111747
0.0096 0.0699426 0.0699426 0.000555146 -0.109832
0.00965 0.0686878 0.0686878 0.000554257 -0.107861
0.0097 0.067397 0.067397 0.000552996 -0.105834
0.00975 0.0660696 0.0660696 0.000551376 -0.10375
0.0098 0.0647051 0.0647051 0.000549412 -0.101607
0.00985 0.0633031 0.0633031 0.000547122 -0.0994057
0.0099 0.0618629 0.0618629 0.000544522 -0.0971441
0.00995 0.0603842 0.0603842 0.000541632 -0.0948221
0.01 0.0588667 0.0588667 0.00053847 -0.0924391
0.01005 0.05731 0.05731 0.000535057 -0.0899945
0.0101 0.0557138 0.0557138 0.000531411 -0.087488
0.01015 0.054078 0.054078 0.000527553 -0.0849193
0.0102 0.0524024 0.0524024 0.000523503 -0.0822881
0.01025 0.0506869 0.050687 0.00051928 -0.0795943
0.0103 0.0489317 0.0489317 0.000514905 -0.0768379
0.01035 0.0471366 0.0471366 0.000510396 -0.0740192
0.0104 0.0453019 0.0453019 0.000505773 -0.0711381
0.01045 0.0434278 0.0434278 0.000501053 -0.0681952
0.0105 0.0415145 0.0415145 0.000496253 -0.0651907
0.01055 0.0395624 0.0395624 0.000491392 -0.0621252
0.0106 0.0375718 0.0375718 0.000486484 -0.0589994
0.01065 0.0355432 0.0355432 0.000481546 -0.0558138
0.0107 0.033477 0.033477 0.000476592 -0.0525693
0.01075 0.0313739 0.0313739 0.000471637 -0.0492668
0.0108 0.0292344 0.0292344 0.000466694 -0.0459071
0.01085 0.0270591 0.0270591 0.000461776 -0.0424912
0.0109 0.0248487 0.0248487 0.000456897 -0.0390203
0.01095 0.022604 0.022604 0.000452067 -0.0354954
0.011 0.0203257 0.0203257 0.000447298 -0.0319178
0.01105 0.0180146 0.0180146 0.000442603 -0.0282886
0.0111 0.0156715 0.0156716 0.000437991 -0.0246093
0.01115 0.0132975 0.0132975 0.000433474 -0.0208814
0.0112 0.0108934 0.0108934 0.000429062 -0.0171061
0.01125 0.00846013 0.00846013 0.000424764 -0.0132853
0.0113 0.00599894 0.00599894 0.000420591 -0.00942044
0.01135 0.00351087 0.00351087 0.000416553 -0.00551342
0.0114 0.000997149 0.000997152 0.000412659 -0.00156612
0.01145 -0.00153919 -0.00153919 0.000408918 0.00241671
0.0115 -0.00409929 -0.00409929 0.000405338 0.00643685
0.01155 -0.0066816 -0.00668159 0.00040193 0.0104918
0.0116 -0.00928449 -0.00928449 0.0003987 0.0145792
0.01165 -0.0119054 -0.0119054 0.000395658 0.0186949
0.0117 -0.0145426 -0.0145426 0.00039281 0.0228361
0.01175 -0.0171943 -0.0171943 0.000390163 0.0270001
0.0118 -0.0198587 -0.0198587 0.000387724 0.031184
0.01185 -0.0225338 -0.0225338 0.000385499 0.0353847
0.0119 -0.0252173 -0.0252173 0.000383492 0.0395987
0.01195 -0.027907 -0.027907 0.000381708 0.0438224
0.012 -0.0306006 -0.0306006 0.00038015 0.0480522
0.01205 -0.0332957 -0.0332957 0.00037882 0.0522843
0.0121 -0.0359896 -0.0359896 0.000377718 0.0565146
0.01215 -0.0386799 -0.0386799 0.000376846 0.0607392
0.0122 -0.0413639 -0.0413639 0.000376202 0.064954
0.01225 -0.0440389 -0.0440389 0.000375784 0.0691546
0.0123 -0.0467019 -0.0467019 0.000375587 0.0733364
0.01235 -0.0493507 -0.0493507 0.000375608 0.0774959
0.0124 -0.0519842 -0.0519842 0.000375839 0.0816314
0.01245 -0.0545972 -0.0545972 0.000376273 0.0857346
0.0125 -0.0571869 -0.0571869 0.000376902 0.0898013
0.01255 -0.0597511 -0.0597511 0.000377715 0.0938279
0.0126 -0.0622874 -0.0622874 0.0003787 0.0978109
0.01265 -0.0647935 -0.0647935 0.000379846 0.101746
0.0127 -0.0672666 -0.0672666 0.000381138 0.10563
0.01275 -0.0697043 -0.0697043 0.000382561 0.109458
0.0128 -0.0721042 -0.0721042 0.000384101 0.113227
0.01285 -0.0744639 -0.0744639 0.000385741 0.116932
0.0129 -0.0767813 -0.0767813 0.000387463 0.120571
0.01295 -0.0790542 -0.0790542 0.00038925 0.12414
0.013 -0.0812805 -0.0812805 0.000391084 0.127636
0.01305 -0.0834584 -0.0834584 0.000392946 0.131056
0.0131 -0.0855861 -0.085586 0.000394818 0.134398
0.01315 -0.0876617 -0.0876617 0.00039668 0.137657
0.0132 -0.0896837 -0.0896837 0.000398513 0.140832
0.01325 -0.0916505 -0.0916505 0.000400298 0.143921
0.0133 -0.0935607 -0.0935607 0.000402017 0.146921
0.01335 -0.0954129 -0.0954129 0.000403651 0.149829
0.0134 -0.0972058 -0.0972058 0.000405182 0.152645
0.01345 -0.0989383 -0.0989383 0.000406591 0.155365
0.0135 -0.100609 -0.100609 0.000407862 0.157989
0.01355 -0.102218 -0.102218 0.000408978 0.160515
0.0136 -0.103762 -0.103762 0.000409923 0.162941
0.01365 -0.105243 -0.105243 0.000410681 0.165265
0.0137 -0.106658 -0.106658 0.000411237 0.167488
0.01375 -0.108007 -0.108007 0.000411577 0.169607
0.0138 -0.10929 -0.10929 0.000411688 0.171621
0.01385 -0.110506 -0.110506 0.000411557 0.17353
0.0139 -0.111653 -0.111653 0.000411173 0.175332
0.01395 -0.112733 -0.112733 0.000410524 0.177027
0.014 -0.113744 -0.113744 0.000409601 0.178614
0.01405 -0.114685 -0.114685 0.000408393 0.180093
0.0141 -0.115558 -0.115558 0.000406892 0.181463
0.01415 -0.11636 -0.11636 0.000405091 0.182723
0.0142 -0.117093 -0.117093 0.000402981 0.183874
0.01425 -0.117756 -0.117756 0.000400557 0.184915
0.0143 -0.118349 -0.118349 0.000397813 0.185846
0.01435 -0.118872 -0.118872 0.000394744 0.186668
0.0144 -0.119325 -0.119325 0.000391347 0.187379
0.01445 -0.119709 -0.119709 0.000387619 0.187982
0.0145 -0.120023 -0.120023 0.000383556 0.188475
0.01455 -0.120268 -0.120268 0.000379159 0.18886
0.0146 -0.120445 -0.120445 0.000374427 0.189137
0.01465 -0.120553 -0.120553 0.00036936 0.189307
0.0147 -0.120594 -0.120594 0.00036396 0.189372
0.01475 -0.120568 -0.120568 0.00035823 0.189331
0.0148 -0.120477 -0.120477 0.000352174 0.189188
0.01485 -0.120321 -0.120321 0.000345796 0.188943
0.0149 -0.120101 -0.120101 0.000339102 0.188597
0.01495 -0.119818 -0.119818 0.000332099 0.188153
0.015 -0.119474 -0.119474 0.000324797 0.187612
0.01505 -0.11907 -0.11907 0.000317203 0.186977
0.0151 -0.118607 -0.118607 0.000309328 0.186251
0.01515 -0.118087 -0.118087 0.000301184 0.185434
0.0152 -0.117512 -0.117512 0.000292785 0.184531
0.01525 -0.116883 -0.116883 0.000284144 0.183544
0.0153 -0.116203 -0.116203 0.000275276 0.182476
0.01535 -0.115473 -0.115473 0.000266198 0.181329
0.0154 -0.114695 -0.114695 0.000256927 0.180108
0.01545 -0.113872 -0.113872 0.000247481 0.178816
0.0155 -0.113006 -0.113006 0.000237881 0.177456
0.01555 -0.112099 -0.112099 0.000228147 0.176031
0.0156 -0.111154 -0.111154 0.000218299 0.174546
0.01565 -0.110172 -0.110172 0.000208361 0.173005
0.0157 -0.109157 -0.109157 0.000198354 0.171411
0.01575 -0.108111 -0.108111 0.000188303 0.169768
0.0158 -0.107036 -0.107036 0.000178231 0.16808
0.01585 -0.105935 -0.105935 0.000168163 0.166352
0.0159 -0.104811 -0.104811 0.000158124 0.164586
0.01595 -0.103666 -0.103666 0.000148138 0.162788
0.016 -0.102503 -0.102503 0.000138231 0.160962
0.01605 -0.101324 -0.101324 0.000128428 0.159111
0.0161 -0.100132 -0.100133 0.000118754 0.157239
0.01615 -0.0989298 -0.0989298 0.000109234 0.15535
0.0162 -0.0977187 -0.0977187 9.98939e-05 0.153448
0.01625 -0.0965018 -0.0965018 9.07567e-05 0.151537
0.0163 -0.0952811 -0.0952811 8.18468e-05 0.149621
0.01635 -0.094059 -0.094059 7.31876e-05 0.147701
0.0164 -0.0928376 -0.0928376 6.48018e-05 0.145783
0.01645 -0.0916189 -0.0916189 5.67116e-05 0.14387
0.0165 -0.0904048 -0.0904048 4.89382e-05 0.141963
0.01655 -0.0891972 -0.0891972 4.15021e-05 0.140067
0.0166 -0.0879979 -0.0879979 3.44232e-05 0.138184
0.01665 -0.0868084 -0.0868084 2.772e-05 0.136316
0.0167 -0.0856302 -0.0856302 2.14104e-05 0.134466
0.01675 -0.0844647 -0.0844647 1.55111e-05 0.132635
0.0168 -0.0833133 -0.0833133 1.00381e-05 0.130827
0.01685 -0.0821771 -0.0821771 5.00597e-06 0.129043
0.0169 -0.0810573 -0.0810573 4.28453e-07 0.127285
0.01695 -0.0799546 -0.0799546 -3.68185e-06 0.125553
0.017 -0.0788701 -0.0788701 -7.31344e-06 0.12385
0.01705 -0.0778045 -0.0778045 -1.04559e-05 0.122177
0.0171 -0.0767584 -0.0767584 -1.30999e-05 0.120534
0.01715 -0.0757323 -0.0757323 -1.52374e-05 0.118923
0.0172 -0.0747266 -0.0747266 -1.68612e-05 0.117344
0.01725 -0.0737418 -0.0737418 -1.79654e-05 0.115797
0.0173 -0.0727781 -0.0727781 -1.85453e-05 0.114284
0.01735 -0.0718356 -0.0718356 -1.85973e-05 0.112804
0.0174 -0.0709145 -0.0709145 -1.81189e-05 0.111358
0.01745 -0.0700147 -0.0700147 -1.71087e-05 0.109945
0.0175 -0.0691362 -0.0691362 -1.55667e-05 0.108565
0.01755 -0.0682789 -0.0682789 -1.34939e-05 0.107219
0.0176 -0.0674425 -0.0674425 -1.08926e-05 0.105906
0.01765 -0.0666269 -0.0666269 -7.76614e-06 0.104625
0.0177 -0.0658317 -0.0658317 -4.11921e-06 0.103377
0.01775 -0.0650566 -0.0650566 4.23186e-08 0.102159
0.0178 -0.064301 -0.064301 4.71136e-06 0.100973
0.01785 -0.0635645 -0.0635645 9.87958e-06 0.0998165
0.0179 -0.0628466 -0.0628466 1.55374e-05 0.0986892
0.01795 -0.0621466 -0.0621466 2.16741e-05 0.0975901
0.018 -0.0614639 -0.0614639 2.82774e-05 0.0965181
0.01805 -0.0607978 -0.0607978 3.53343e-05 0.0954721
0.0181 -0.0601475 -0.0601475 4.28301e-05 0.094451
0.01815 -0.0595122 -0.0595122 5.0749e-05 0.0934534
0.0182 -0.058891 -0.058891 5.90742e-05 0.092478
0.01825 -0.058283 -0.058283 6.77875e-05 0.0915233
0.0183 -0.0576872 -0.0576872 7.68696e-05 0.0905877
0.01835 -0.0571025 -0.0571025 8.63001e-05 0.0896697
0.0184 -0.056528 -0.056528 9.60576e-05 0.0887674
0.01845 -0.0559623 -0.0559623 0.00010612 0.0878792
0.0185 -0.0554044 -0.0554044 0.000116463 0.0870031
0.01855 -0.054853 -0.054853 0.000127062 0.0861372
0.0186 -0.0543067 -0.0543067 0.000137893 0.0852794
0.01865 -0.0537643 -0.0537643 0.00014893 0.0844276
0.0187 -0.0532243 -0.0532243 0.000160145 0.0835796
0.01875 -0.0526853 -0.0526853 0.000171512 0.0827332
0.0188 -0.0521458 -0.0521458 0.000183003 0.0818861
0.01885 -0.0516044 -0.0516044 0.000194589 0.0810359
0.0189 -0.0510595 -0.0510595 0.000206242 0.0801801
0.01895 -0.0505095 -0.0505095 0.000217933 0.0793165
0.019 -0.0499529 -0.0499529 0.000229633 0.0784424
0.01905 -0.0493881 -0.0493881 0.000241314 0.0775554
0.0191 -0.0488134 -0.0488134 0.000252945 0.076653
0.01915 -0.0482274 -0.0482274 0.0002645 0.0757327
0.0192 -0.0476283 -0.0476283 0.000275948 0.0747919
0.01925 -0.0470147 -0.0470147 0.000287261 0.0738283
0.0193 -0.046385 -0.046385 0.000298413 0.0728394
0.01935 -0.0457375 -0.0457375 0.000309376 0.0718226
0.0194 -0.045071 -0.045071 0.000320123 0.0707758
0.01945 -0.0443837 -0.0443837 0.000330628 0.0696966
0.0195 -0.0436745 -0.0436745 0.000340866 0.0685828
0.01955 -0.0429418 -0.0429418 0.000350813 0.0674322
0.0196 -0.0421844 -0.0421844 0.000360447 0.0662428
0.01965 -0.041401 -0.041401 0.000369744 0.0650125
0.0197 -0.0405905 -0.0405905 0.000378684 0.0637397
0.01975 -0.0397516 -0.0397517 0.000387246 0.0624224
0.0198 -0.0388835 -0.0388835 0.000395412 0.0610592
0.01985 -0.0379852 -0.0379852 0.000403165 0.0596484
0.0199 -0.0370557 -0.0370557 0.000410488 0.0581888
0.01995 -0.0360943 -0.0360944 0.000417365 0.0566791
0.02 -0.0351004 -0.0351004 0.000423784 0.0551183
